<?xml version="1.0"?>
<VTKFile type="ImageData" version="0.1" byte_order="LittleEndian">
  <ImageData WholeExtent="0 79 0 19 0 19" Origin="0 0 0" Spacing="1 1 1">
  <Piece Extent="0 79 0 19 0 19">
    <PointData Scalars="density">
       <DataArray type="Float32" Name="bluedensity" NumberOfComponents="1" format="ascii">
      0   0   0   0   0   
      0   0   0   0   0   
      0   0   0   0   0   
      0   0   0   0   0   
      0   0   0   0   0   
      0   0   0   0   0   
      0   0   0   0   0   
      0   0   0   0   0   
      0   0   0   0   0   
      0   0   0   0   0   
      0   0   0   0   0   
      0   0   0   0   0   
      0   0   0   0   0   
      0   0   0   0   0   
      0   0   0   0   0   
      0   0   0   0   0   
      0   0   0   0   0   
      0   0   0   0   0   
      0   0   0   0   0   
      0   0   0   0   0   
      0   0   0   0   0   
      0   0   0   0   0   
      0   0   0   0   0   
      0   0   0   0   0   
      0   0   0   0   0   
      0   0   0   0   0   
      0   0   0   0   0   
      0   0   0   0   0   
      0   0   0   0   0   
      0   0   0   0   0   
      0   0   0   0   0   
      0   0   0   0   0   
      0   0   0   0   0   
      0   0   0   0   0   
      0   0   0   0   0   
      0   0   0   0   0   
      0   0   0   0   0   
      0   0   0   0   0   
      0   0   0   0   0   
      0   0   0   0   0   
      0   0   0   0   0   
      0   0   0   0   0   
      0   0   0   0   0   
      0   0   0   0   0   
      0   0   0   0   0   
      0   0   0   0   0   
      0   0   0   0   0   
      0   0   0   0   0   
      0   0   0   0   0   
      0   0   0   0   0   
      0   0   0   0   0   
      0   0   0   0   0   
      0   0   0   0   0   
      0   0   0   0   0   
      0   0   0   0   0   
      0   0   0   0   0   
      0   0   0   0   0   
      0   0   0   0   0   
      0   0   0   0   0   
      0   0   0   0   0   
      0   0   0   0   0   
      0   0   0   0   0   
      0   0   0   0   0   
      0   0   0   0   0   
      0   0   0   0   0   
      0   0   0   0   0   
      0   0   0   0   0   
      0   0   0   0   0   
      0   0   0   0   0   
      0   0   0   0   0   
      0   0   0   0   0   
      0   0   0   0   0   
      0   0   0   0   0   
      0   0   0   0   0   
      0   0   0   0   0   
      0   0   0   0   0   
      0   0   0   0   0   
      0   0   0   0   0   
      0   0   0   0   0   
      0   0   0   0   0   
      0   0   0   0   0   
      0   0   0   0   0   
      0   0   0   0   0   
      0   0   0   0   0   
      0   0   0   0   0   
      0   0   0   0   0   
      0   0   0   0   0   
      0   0   0   0   0   
      0   0   0   0   0   
      0   0   0   0   0   
      0   0   0   0   0   
      0   0   0   0   0   
      0   0   0   0   0   
      0   0   0   0   0   
      0   0   0   0   0   
      0   0   0   0   0   
      0   0   0   0   0   
      0   0   0   0   0   
      0   0   0   0   0   
      0   0   0   0   0   
      0   0   0   0   0   
      0   0   0   0   0   
      0   0   0   0   0   
      0   0   0   0   0   
      0   0   0   0   0   
      0   0   0   0   0   
      0   0   0   0   0   
      0   0   0   0   0   
      0   0   0   0   0   
      0   0   0   0   0   
      0   0   0   0   0   
      0   0   0   0   0   
      0   0   0   0   0   
      0   0   0   0   0   
      0   0   0   0   0   
      0   0   0   0   0   
      0   0   0   0   0   
      0   0   0   0   0   
      0   0   0   0   0   
      0   0   0   0   0   
      0   0   0   0   0   
      0   0   0   0   0   
      0   0   0   0   0   
      0   0   0   0   0   
      0   0   0   0   0   
      0   0   0   0   0   
      0   0   0   0   0   
      0   0   0   0   0   
      0   0   0   0   0   
      0   0   0   0   0   
      0   0   0   0   0   
      0   0   0   0   0   
      0   0   0   0   0   
      0   0   0   0   0   
      0   0   0   0   0   
      0   0   0   0   0   
      0   0   0   0   0   
      0   0   0   0   0   
      0   0   0   0   0   
      0   0   0   0   0   
      0   0   0   0   0   
      0   0   0   0   0   
      0   0   0   0   0   
      0   0   0   0   0   
      0   0   0   0   0   
      0   0   0   0   0   
      0   0   0   0   0   
      0   0   0   0   0   
      0   0   0   0   0   
      0   0   0   0   0   
      0   0   0   0   0   
      0   0   0   0   0   
      0   0   0   0   0   
      0   0   0   0   0   
      0   0   0   0   0   
      0   0   0   0   0   
      0   0   0   0   0   
      0   0   0   0   0   
      0   0   0   0   0   
      0   0   0   0   0   
      0   0   0   0   0   
      0   0   0   0   0   
      0   0   0   0   0   
      0   0   0   0   0   
      0   0   0   0   0   
      0   0   0   0   0   
      0   0   0   0   0   
      0   0   0   0   0   
      0   0   0   0   0   
      0   0   0   0   0   
      0   0   0   0   0   
      0   0   0   0   0   
      0   0   0   0   0   
      0   0   0   0   0   
      0   0   0   0   0   
      0   0   0   0   0   
      0   0   0   0   0   
      0   0   0   0   0   
      0   0   0   0   0   
      0   0   0   0   0   
      0   0   0   0   0   
      0   0   0   0   0   
      0   0   0   0   0   
      0   0   0   0   0   
      0   0   0   0   0   
      0   0   0   0   0   
      0   0   0   0   0   
      0   0   0   0   0   
      0   0   0   0   0   
      0   0   0   0   0   
      0   0   0   0   0   
      0   0   0   0   0   
      0   0   0   0   0   
      0   0   0   0   0   
      0   0   0   0   0   
      0   0   0   0   0   
      0   0   0   0   0   
      0   0   0   0   0   
      0   0   0   0   0   
      0   0   0   0   0   
      0   0   0   0   0   
      0   0   0   0   0   
      0   0   0   0   0   
      0   0   0   0   0   
      0   0   0   0   0   
      0   0   0   0   0   
      0   0   0   0   0   
      0   0   0   0   0   
      0   0   0   0   0   
      0   0   0   0   0   
      0   0   0   0   0   
      0   0   0   0   0   
      0   0   0   0   0   
      0   0   0   0   0   
      0   0   0   0   0   
      0   0   0   0   0   
      0   0   0   0   0   
      0   0   0   0   0   
      0   0   0   0   0   
      0   0   0   0   0   
      0   0   0   0   0   
      0   0   0   0   0   
      0   0   0   0   0   
      0   0   0   0   0   
      0   0   0   0   0   
      0   0   0   0   0   
      0   0   0   0   0   
      0   0   0   0   0   
      0   0   0   0   0   
      0   0   0   0   0   
      0   0   0   0   0   
      0   0   0   0   0   
      0   0   0   0   0   
      0   0   0   0   0   
      0   0   0   0   0   
      0   0   0   0   0   
      0   0   0   0   0   
      0   0   0   0   0   
      0   0   0   0   0   
      0   0   0   0   0   
      0   0   0   0   0   
      0   0   0   0   0   
      0   0   0   0   0   
      0   0   0   0   0   
      0   0   0   0   0   
      0   0   0   0   0   
      0   0   0   0   0   
      0   0   0   0   0   
      0   0   0   0   0   
      0   0   0   0   0   
      0   0   0   0   0   
      0   0   0   0   0   
      0   0   0   0   0   
      0   0   0   0   0   
      0   0   0   0   0   
      0   0   0   0   0   
      0   0   0   0   0   
      0   0   0   0   0   
      0   0   0   0   0   
      0   0   0   0   0   
      0   0   0   0   0   
      0   0   0   0   0   
      0   0   0   0   0   
      0   0   0   0   0   
      0   0   0   0   0   
      0   0   0   0   0   
      0   0   0   0   0   
      0   0   0   0   0   
      0   0   0   0   0   
      0   0   0   0   0   
      0   0   0   0   0   
      0   0   0   0   0   
      0   0   0   0   0   
      0   0   0   0   0   
      0   0   0   0   0   
      0   0   0   0   0   
      0   0   0   0   0   
      0   0   0   0   0   
      0   0   0   0   0   
      0   0   0   0   0   
      0   0   0   0   0   
      0   0   0   0   0   
      0   0   0   0   0   
      0   0   0   0   0   
      0   0   0   0   0   
      0   0   0   0   0   
      0   0   0   0   0   
      0   0   0   0   0   
      0   0   0   0   0   
      0   0   0   0   0   
      0   0   0   0   0   
      0   0   0   0   0   
      0   0   0   0   0   
      0   0   0   0   0   
      0   0   0   0   0   
      0   0   0   0   0   
      0   0   0   0   0   
      0   0   0   0   0   
      0   0   0   0   0   
      0   0   0   0   0   
      0   0   0   0   0   
      0   0   0   0   0   
      0   0   0   0   0   
      0   0   0   0   0   
      0   0   0   0   0   
      0   0   0   0   0   
      0   0   0   0   0   
      0   0   0   0   0   
      0   0   0   0   0   
      0   0   0   0   0   
      0   0   0   0   0   
      0   0   0   0   0   
      0   0   0   0   0   
      0   0   0   0   0   
      0   0   0   0   0   
      0   0   0   0   0   
      0   0   0   0   0   
      0   0   0   0   0   
      0   0   0   0   0   
      0   0   0   0   0   
      0   0   0   0   0   
      0   0   0   0   0   
      0   0   0   0   0   
      0   0   0   0   0   
      0   0   0   0   0   
      0   0   0   0   0   
      0   0   0   0   0   
      0   0   0   0   0   
      0   0   0   0   0   
      0   0   0   0   0   
      0   0   0   0   0   
      0   0   0   0   0   
      0   0   0   0   0   
      0   0   0   0   0   
      0   0   0   0   0   
      0   0   0   0   0   
      0.572586285995   0.572576334305   0.572546513468   0.572496926444   0.572427745703   
      0.572339214518   0.572231648733   0.572105438989   0.571961053346   0.571799040248   
      0.571620031752   0.571424746932   0.571213995345   0.570988680416   0.570749802615   
      0.570498462219   0.570235861496   0.569963306085   0.569682205341   0.569394071437   
      0.569100516958   0.568803250785   0.56850407205   0.568204861972   0.567907573458   
      0.567614218356   0.567326852354   0.567047557577   0.566778423001   0.566521522929   
      0.566278893822   0.566052509887   0.565844257901   0.565655911805   0.56548910766   
      0.565345319592   0.565225837349   0.565131746081   0.565063908917   0.565022952846   
      0.565009258313   0.565022952846   0.565063908917   0.565131746081   0.565225837349   
      0.565345319592   0.56548910766   0.565655911805   0.565844257901   0.566052509887   
      0.566278893822   0.566521522929   0.566778423001   0.567047557577   0.567326852354   
      0.567614218356   0.567907573458   0.568204861972   0.56850407205   0.568803250785   
      0.569100516958   0.569394071437   0.569682205341   0.569963306085   0.570235861496   
      0.570498462219   0.570749802615   0.570988680416   0.571213995345   0.571424746932   
      0.571620031752   0.571799040248   0.571961053346   0.572105438989   0.572231648733   
      0.572339214518   0.572427745703   0.572496926444   0.572546513468   0.572576334305   
      0.460455183199   0.460441376235   0.460400002638   0.460331204678   0.460235220743   
      0.460112387228   0.45996314112   0.459788023233   0.459587682027   0.459362877899   
      0.459114487857   0.458843510409   0.458551070524   0.458238424453   0.457906964194   
      0.457558221345   0.45719387007   0.456815728878   0.456425760899   0.456026072329   
      0.455618908742   0.455206648939   0.454791796086   0.454376965895   0.453964871688   
      0.453558306254   0.4531601205   0.452773199002   0.452400432669   0.452044688859   
      0.45170877939   0.451395427011   0.451107230981   0.450846632484   0.450615880695   
      0.450417000282   0.450251761208   0.450121651594   0.450027854395   0.449971228538   
      0.449952295044   0.449971228538   0.450027854395   0.450121651594   0.450251761208   
      0.450417000282   0.450615880695   0.450846632484   0.451107230981   0.451395427011   
      0.45170877939   0.452044688859   0.452400432669   0.452773199002   0.4531601205   
      0.453558306254   0.453964871688   0.454376965895   0.454791796086   0.455206648939   
      0.455618908742   0.456026072329   0.456425760899   0.456815728878   0.45719387007   
      0.457558221345   0.457906964194   0.458238424453   0.458551070524   0.458843510409   
      0.459114487857   0.459362877899   0.459587682027   0.459788023233   0.45996314112   
      0.460112387228   0.460235220743   0.460331204678   0.460400002638   0.460441376235   
      0.435242065571   0.435224228621   0.435170780862   0.435081912048   0.43495794002   
      0.434799313055   0.434606613067   0.43438055961   0.434122014547   0.433831987291   
      0.43351164043   0.433162295559   0.432785439083   0.43238272774   0.431955993543   
      0.431507247811   0.431038683947   0.430552678574   0.430051790644   0.429538758143   
      0.429016492003   0.428488066884   0.427956708526   0.427425777441   0.426898748794   
      0.426379188425   0.42587072509   0.425377019095   0.424901727667   0.424448467511   
      0.424020775136   0.423622065655   0.423255590847   0.422924397366   0.422631286007   
      0.422378772969   0.422169054051   0.422003972645   0.421884992343   0.421813174855   
      0.421789163808   0.421813174855   0.421884992343   0.422003972645   0.422169054051   
      0.422378772969   0.422631286007   0.422924397366   0.423255590847   0.423622065655   
      0.424020775136   0.424448467511   0.424901727667   0.425377019095   0.42587072509   
      0.426379188425   0.426898748794   0.427425777441   0.427956708526   0.428488066884   
      0.429016492003   0.429538758143   0.430051790644   0.430552678574   0.431038683947   
      0.431507247811   0.431955993543   0.43238272774   0.432785439083   0.433162295559   
      0.43351164043   0.433831987291   0.434122014547   0.43438055961   0.434606613067   
      0.434799313055   0.43495794002   0.435081912048   0.435170780862   0.435224228621   
      0.410273624643   0.410251805951   0.410186430583   0.410077741207   0.409926144068   
      0.409732211642   0.409496686239   0.409220484474   0.408904702451   0.408550621498   
      0.408159714247   0.407733650802   0.407274304722   0.406783758475   0.406264308027   
      0.405718466146   0.405148964018   0.40455875074   0.403950990242   0.403329055227   
      0.40269651772   0.402057135893   0.401414836877   0.400773695373   0.400137907983   
      0.399511763297   0.398899607911   0.398305808678   0.397734711657   0.397190598331   
      0.396677639824   0.396199849897   0.395761037649   0.395364760842   0.395014280844   
      0.394712520144   0.394462023365   0.394264922663   0.394122908267   0.394037204844   
      0.394008554218   0.394037204844   0.394122908267   0.394264922663   0.394462023365   
      0.394712520144   0.395014280844   0.395364760842   0.395761037649   0.396199849897   
      0.396677639824   0.397190598331   0.397734711657   0.398305808678   0.398899607911   
      0.399511763297   0.400137907983   0.400773695373   0.401414836877   0.402057135893   
      0.40269651772   0.403329055227   0.403950990242   0.40455875074   0.405148964018   
      0.405718466146   0.406264308027   0.406783758475   0.407274304722   0.407733650802   
      0.408159714247   0.408550621498   0.408904702451   0.409220484474   0.409496686239   
      0.409732211642   0.409926144068   0.410077741207   0.410186430583   0.410251805951   
      0.390697582318   0.390672793961   0.390598524959   0.390475064076   0.390302894439   
      0.390082696259   0.38981535051   0.389501943453   0.389143771817   0.388742348454   
      0.388299408203   0.387816913672   0.387297060611   0.386742282495   0.386155253909   
      0.385538892305   0.38489635767   0.384231049644   0.383546601648   0.382846871588   
      0.382135928782   0.38141803678   0.380697631894   0.379979297301   0.379267732762   
      0.378567720095   0.377884084695   0.377221653539   0.376585210244   0.375979447846   
      0.375408920113   0.37487799223   0.374390791781   0.37395116095   0.373562610878   
      0.373228279048   0.372950890548   0.372732723945   0.37257558244   0.372480770855   
      0.372449078871   0.372480770855   0.37257558244   0.372732723945   0.372950890548   
      0.373228279048   0.373562610878   0.37395116095   0.374390791781   0.37487799223   
      0.375408920113   0.375979447846   0.376585210244   0.377221653539   0.377884084695   
      0.378567720095   0.379267732762   0.379979297301   0.380697631894   0.38141803678   
      0.382135928782   0.382846871588   0.383546601648   0.384231049644   0.38489635767   
      0.385538892305   0.386155253909   0.386742282495   0.387297060611   0.387816913672   
      0.388299408203   0.388742348454   0.389143771817   0.389501943453   0.38981535051   
      0.390082696259   0.390302894439   0.390475064076   0.390598524959   0.390672793961   
      0.375417391117   0.375390609977   0.375310374729   0.375177010439   0.374991060693   
      0.374753290242   0.374464688555   0.374126474138   0.373740099427   0.373307256014   
      0.37282987993   0.372310156647   0.371750525449   0.371153682736   0.370522583855   
      0.369860442971   0.369170730532   0.368457167852   0.367723718386   0.366974575301   
      0.366214145035   0.365447026583   0.364677986403   0.363911928931   0.363153862824   
      0.362408863206   0.361682030328   0.360978445172   0.360303122659   0.359660963215   
      0.359056703507   0.358494867233   0.357979716819   0.357515206904   0.357104940427   
      0.356752128072   0.356459551764   0.356229532794   0.356063905083   0.355963993975   
      0.35593060088   0.355963993975   0.356063905083   0.356229532794   0.356459551764   
      0.356752128072   0.357104940427   0.357515206904   0.357979716819   0.358494867233   
      0.359056703507   0.359660963215   0.360303122659   0.360978445172   0.361682030328   
      0.362408863206   0.363153862824   0.363911928931   0.364677986403   0.365447026583   
      0.366214145035   0.366974575301   0.367723718386   0.368457167852   0.369170730532   
      0.369860442971   0.370522583855   0.371153682736   0.371750525449   0.372310156647   
      0.37282987993   0.373307256014   0.373740099427   0.374126474138   0.374464688555   
      0.374753290242   0.374991060693   0.375177010439   0.375310374729   0.375390609977   
      0.364437841683   0.364409861925   0.364326039477   0.364186725342   0.363992506248   
      0.363744207156   0.363442894604   0.363089880735   0.362686727778   0.362235252752   
      0.361737532052   0.361195905596   0.360612980117   0.359991631187   0.359335003505   
      0.358646508998   0.357929822253   0.357188872846   0.356427834142   0.355651108245   
      0.354863306803   0.35406922752   0.353273826332   0.352482185326   0.351699476629   
      0.350930922649   0.350181753145   0.349457159768   0.348762248773   0.3481019927   
      0.347481181848   0.346904376381   0.346375859896   0.345899595213   0.345479183104   
      0.345117824582   0.344818287275   0.344582876338   0.344413410224   0.34431120161   
      0.344277043637   0.34431120161   0.344413410224   0.344582876338   0.344818287275   
      0.345117824582   0.345479183104   0.345899595213   0.346375859896   0.346904376381   
      0.347481181848   0.3481019927   0.348762248773   0.349457159768   0.350181753145   
      0.350930922649   0.351699476629   0.352482185326   0.353273826332   0.35406922752   
      0.354863306803   0.355651108245   0.356427834142   0.357188872846   0.357929822253   
      0.358646508998   0.359335003505   0.359991631187   0.360612980117   0.361195905596   
      0.361737532052   0.362235252752   0.362686727778   0.363089880735   0.363442894604   
      0.363744207156   0.363992506248   0.364186725342   0.364326039477   0.364409861925   
      0.357417619847   0.35738899013   0.357303223331   0.357160686996   0.356961995346   
      0.35670801165   0.356399851384   0.356038885979   0.355626746961   0.355165330184   
      0.354656799845   0.354103591918   0.353508416579   0.352874259212   0.3522043795   
      0.351502308171   0.350771840899   0.350017028964   0.349242166267   0.348451772392   
      0.347650571505   0.346843466978   0.34603551175   0.345231874606   0.344437802646   
      0.343658580409   0.342899486194   0.342165746263   0.341462487675   0.340794690545   
      0.340167140573   0.339584382626   0.339050676166   0.338569953196   0.338145779366   
      0.337781318729   0.33747930258   0.337242002687   0.33707120916   0.336968213105   
      0.336933794181   0.336968213105   0.33707120916   0.337242002687   0.33747930258   
      0.337781318729   0.338145779366   0.338569953196   0.339050676166   0.339584382626   
      0.340167140573   0.340794690545   0.341462487675   0.342165746263   0.342899486194   
      0.343658580409   0.344437802646   0.345231874606   0.34603551175   0.346843466978   
      0.347650571505   0.348451772392   0.349242166267   0.350017028964   0.350771840899   
      0.351502308171   0.3522043795   0.352874259212   0.353508416579   0.354103591918   
      0.354656799845   0.355165330184   0.355626746961   0.356038885979   0.356399851384   
      0.35670801165   0.356961995346   0.357160686996   0.357303223331   0.35738899013   
      0.354013672508   0.3539847632   0.35389816031   0.353754239426   0.35355362812   
      0.35329720825   0.352986118996   0.352621760465   0.352205797616   0.351740164235   
      0.351227066628   0.350668986648   0.350068683653   0.349429194935   0.348753834184   
      0.34804618748   0.347310106392   0.346549697753   0.345769309731   0.344973513925   
      0.344167083286   0.34335496578   0.342542253871   0.341734149994   0.340935928375   
      0.340152893668   0.339390336998   0.338653490118   0.337947478434   0.337277273716   
      0.336647647317   0.336063124672   0.335527941832   0.335046004675   0.334620851365   
      0.334255618509   0.333953011377   0.33371527843   0.333544190338   0.333441023598   
      0.333406548801   0.333441023598   0.333544190338   0.33371527843   0.333953011377   
      0.334255618509   0.334620851365   0.335046004675   0.335527941832   0.336063124672   
      0.336647647317   0.337277273716   0.337947478434   0.338653490118   0.339390336998   
      0.340152893668   0.340935928375   0.341734149994   0.342542253871   0.34335496578   
      0.344167083286   0.344973513925   0.345769309731   0.346549697753   0.347310106392   
      0.34804618748   0.348753834184   0.349429194935   0.350068683653   0.350668986648   
      0.351227066628   0.351740164235   0.352205797616   0.352621760465   0.352986118996   
      0.35329720825   0.35355362812   0.353754239426   0.35389816031   0.3539847632   
      0.354013672508   0.3539847632   0.35389816031   0.353754239426   0.35355362812   
      0.35329720825   0.352986118996   0.352621760465   0.352205797616   0.351740164235   
      0.351227066628   0.350668986648   0.350068683653   0.349429194935   0.348753834184   
      0.34804618748   0.347310106392   0.346549697753   0.345769309731   0.344973513925   
      0.344167083286   0.34335496578   0.342542253871   0.341734149994   0.340935928375   
      0.340152893668   0.339390336998   0.338653490118   0.337947478434   0.337277273716   
      0.336647647317   0.336063124672   0.335527941832   0.335046004675   0.334620851365   
      0.334255618509   0.333953011377   0.33371527843   0.333544190338   0.333441023598   
      0.333406548801   0.333441023598   0.333544190338   0.33371527843   0.333953011377   
      0.334255618509   0.334620851365   0.335046004675   0.335527941832   0.336063124672   
      0.336647647317   0.337277273716   0.337947478434   0.338653490118   0.339390336998   
      0.340152893668   0.340935928375   0.341734149994   0.342542253871   0.34335496578   
      0.344167083286   0.344973513925   0.345769309731   0.346549697753   0.347310106392   
      0.34804618748   0.348753834184   0.349429194935   0.350068683653   0.350668986648   
      0.351227066628   0.351740164235   0.352205797616   0.352621760465   0.352986118996   
      0.35329720825   0.35355362812   0.353754239426   0.35389816031   0.3539847632   
      0.357417619847   0.35738899013   0.357303223331   0.357160686996   0.356961995346   
      0.35670801165   0.356399851384   0.356038885979   0.355626746961   0.355165330184   
      0.354656799845   0.354103591918   0.353508416579   0.352874259212   0.3522043795   
      0.351502308171   0.350771840899   0.350017028964   0.349242166267   0.348451772392   
      0.347650571505   0.346843466978   0.34603551175   0.345231874606   0.344437802646   
      0.343658580409   0.342899486194   0.342165746263   0.341462487675   0.340794690545   
      0.340167140573   0.339584382626   0.339050676166   0.338569953196   0.338145779366   
      0.337781318729   0.33747930258   0.337242002687   0.33707120916   0.336968213105   
      0.336933794181   0.336968213105   0.33707120916   0.337242002687   0.33747930258   
      0.337781318729   0.338145779366   0.338569953196   0.339050676166   0.339584382626   
      0.340167140573   0.340794690545   0.341462487675   0.342165746263   0.342899486194   
      0.343658580409   0.344437802646   0.345231874606   0.34603551175   0.346843466978   
      0.347650571505   0.348451772392   0.349242166267   0.350017028964   0.350771840899   
      0.351502308171   0.3522043795   0.352874259212   0.353508416579   0.354103591918   
      0.354656799845   0.355165330184   0.355626746961   0.356038885979   0.356399851384   
      0.35670801165   0.356961995346   0.357160686996   0.357303223331   0.35738899013   
      0.364437841683   0.364409861925   0.364326039477   0.364186725342   0.363992506248   
      0.363744207156   0.363442894604   0.363089880735   0.362686727778   0.362235252752   
      0.361737532052   0.361195905596   0.360612980117   0.359991631187   0.359335003505   
      0.358646508998   0.357929822253   0.357188872846   0.356427834142   0.355651108245   
      0.354863306803   0.35406922752   0.353273826332   0.352482185326   0.351699476629   
      0.350930922649   0.350181753145   0.349457159768   0.348762248773   0.3481019927   
      0.347481181848   0.346904376381   0.346375859896   0.345899595213   0.345479183104   
      0.345117824582   0.344818287275   0.344582876338   0.344413410224   0.34431120161   
      0.344277043637   0.34431120161   0.344413410224   0.344582876338   0.344818287275   
      0.345117824582   0.345479183104   0.345899595213   0.346375859896   0.346904376381   
      0.347481181848   0.3481019927   0.348762248773   0.349457159768   0.350181753145   
      0.350930922649   0.351699476629   0.352482185326   0.353273826332   0.35406922752   
      0.354863306803   0.355651108245   0.356427834142   0.357188872846   0.357929822253   
      0.358646508998   0.359335003505   0.359991631187   0.360612980117   0.361195905596   
      0.361737532052   0.362235252752   0.362686727778   0.363089880735   0.363442894604   
      0.363744207156   0.363992506248   0.364186725342   0.364326039477   0.364409861925   
      0.375417391117   0.375390609977   0.375310374729   0.375177010439   0.374991060693   
      0.374753290242   0.374464688555   0.374126474138   0.373740099427   0.373307256014   
      0.37282987993   0.372310156647   0.371750525449   0.371153682736   0.370522583855   
      0.369860442971   0.369170730532   0.368457167852   0.367723718386   0.366974575301   
      0.366214145035   0.365447026583   0.364677986403   0.363911928931   0.363153862824   
      0.362408863206   0.361682030328   0.360978445172   0.360303122659   0.359660963215   
      0.359056703507   0.358494867233   0.357979716819   0.357515206904   0.357104940427   
      0.356752128072   0.356459551764   0.356229532794   0.356063905083   0.355963993975   
      0.35593060088   0.355963993975   0.356063905083   0.356229532794   0.356459551764   
      0.356752128072   0.357104940427   0.357515206904   0.357979716819   0.358494867233   
      0.359056703507   0.359660963215   0.360303122659   0.360978445172   0.361682030328   
      0.362408863206   0.363153862824   0.363911928931   0.364677986403   0.365447026583   
      0.366214145035   0.366974575301   0.367723718386   0.368457167852   0.369170730532   
      0.369860442971   0.370522583855   0.371153682736   0.371750525449   0.372310156647   
      0.37282987993   0.373307256014   0.373740099427   0.374126474138   0.374464688555   
      0.374753290242   0.374991060693   0.375177010439   0.375310374729   0.375390609977   
      0.390697582318   0.390672793961   0.390598524959   0.390475064076   0.390302894439   
      0.390082696259   0.38981535051   0.389501943453   0.389143771817   0.388742348454   
      0.388299408203   0.387816913672   0.387297060611   0.386742282495   0.386155253909   
      0.385538892305   0.38489635767   0.384231049644   0.383546601648   0.382846871588   
      0.382135928782   0.38141803678   0.380697631894   0.379979297301   0.379267732762   
      0.378567720095   0.377884084695   0.377221653539   0.376585210244   0.375979447846   
      0.375408920113   0.37487799223   0.374390791781   0.37395116095   0.373562610878   
      0.373228279048   0.372950890548   0.372732723945   0.37257558244   0.372480770855   
      0.372449078871   0.372480770855   0.37257558244   0.372732723945   0.372950890548   
      0.373228279048   0.373562610878   0.37395116095   0.374390791781   0.37487799223   
      0.375408920113   0.375979447846   0.376585210244   0.377221653539   0.377884084695   
      0.378567720095   0.379267732762   0.379979297301   0.380697631894   0.38141803678   
      0.382135928782   0.382846871588   0.383546601648   0.384231049644   0.38489635767   
      0.385538892305   0.386155253909   0.386742282495   0.387297060611   0.387816913672   
      0.388299408203   0.388742348454   0.389143771817   0.389501943453   0.38981535051   
      0.390082696259   0.390302894439   0.390475064076   0.390598524959   0.390672793961   
      0.410273624643   0.410251805951   0.410186430583   0.410077741207   0.409926144068   