<?xml version="1.0"?>
<VTKFile type="ImageData" version="0.1" byte_order="LittleEndian">
  <ImageData WholeExtent="0 79 0 19 0 19" Origin="0 0 0" Spacing="1 1 1">
  <Piece Extent="0 79 0 19 0 19">
    <PointData Scalars="density">
       <DataArray type="Float32" Name="bluedensity" NumberOfComponents="1" format="ascii">
      0   0   0   0   0   
      0   0   0   0   0   
      0   0   0   0   0   
      0   0   0   0   0   
      0   0   0   0   0   
      0   0   0   0   0   
      0   0   0   0   0   
      0   0   0   0   0   
      0   0   0   0   0   
      0   0   0   0   0   
      0   0   0   0   0   
      0   0   0   0   0   
      0   0   0   0   0   
      0   0   0   0   0   
      0   0   0   0   0   
      0   0   0   0   0   
      0   0   0   0   0   
      0   0   0   0   0   
      0   0   0   0   0   
      0   0   0   0   0   
      0   0   0   0   0   
      0   0   0   0   0   
      0   0   0   0   0   
      0   0   0   0   0   
      0   0   0   0   0   
      0   0   0   0   0   
      0   0   0   0   0   
      0   0   0   0   0   
      0   0   0   0   0   
      0   0   0   0   0   
      0   0   0   0   0   
      0   0   0   0   0   
      0   0   0   0   0   
      0   0   0   0   0   
      0   0   0   0   0   
      0   0   0   0   0   
      0   0   0   0   0   
      0   0   0   0   0   
      0   0   0   0   0   
      0   0   0   0   0   
      0   0   0   0   0   
      0   0   0   0   0   
      0   0   0   0   0   
      0   0   0   0   0   
      0   0   0   0   0   
      0   0   0   0   0   
      0   0   0   0   0   
      0   0   0   0   0   
      0   0   0   0   0   
      0   0   0   0   0   
      0   0   0   0   0   
      0   0   0   0   0   
      0   0   0   0   0   
      0   0   0   0   0   
      0   0   0   0   0   
      0   0   0   0   0   
      0   0   0   0   0   
      0   0   0   0   0   
      0   0   0   0   0   
      0   0   0   0   0   
      0   0   0   0   0   
      0   0   0   0   0   
      0   0   0   0   0   
      0   0   0   0   0   
      0   0   0   0   0   
      0   0   0   0   0   
      0   0   0   0   0   
      0   0   0   0   0   
      0   0   0   0   0   
      0   0   0   0   0   
      0   0   0   0   0   
      0   0   0   0   0   
      0   0   0   0   0   
      0   0   0   0   0   
      0   0   0   0   0   
      0   0   0   0   0   
      0   0   0   0   0   
      0   0   0   0   0   
      0   0   0   0   0   
      0   0   0   0   0   
      0   0   0   0   0   
      0   0   0   0   0   
      0   0   0   0   0   
      0   0   0   0   0   
      0   0   0   0   0   
      0   0   0   0   0   
      0   0   0   0   0   
      0   0   0   0   0   
      0   0   0   0   0   
      0   0   0   0   0   
      0   0   0   0   0   
      0   0   0   0   0   
      0   0   0   0   0   
      0   0   0   0   0   
      0   0   0   0   0   
      0   0   0   0   0   
      0   0   0   0   0   
      0   0   0   0   0   
      0   0   0   0   0   
      0   0   0   0   0   
      0   0   0   0   0   
      0   0   0   0   0   
      0   0   0   0   0   
      0   0   0   0   0   
      0   0   0   0   0   
      0   0   0   0   0   
      0   0   0   0   0   
      0   0   0   0   0   
      0   0   0   0   0   
      0   0   0   0   0   
      0   0   0   0   0   
      0   0   0   0   0   
      0   0   0   0   0   
      0   0   0   0   0   
      0   0   0   0   0   
      0   0   0   0   0   
      0   0   0   0   0   
      0   0   0   0   0   
      0   0   0   0   0   
      0   0   0   0   0   
      0   0   0   0   0   
      0   0   0   0   0   
      0   0   0   0   0   
      0   0   0   0   0   
      0   0   0   0   0   
      0   0   0   0   0   
      0   0   0   0   0   
      0   0   0   0   0   
      0   0   0   0   0   
      0   0   0   0   0   
      0   0   0   0   0   
      0   0   0   0   0   
      0   0   0   0   0   
      0   0   0   0   0   
      0   0   0   0   0   
      0   0   0   0   0   
      0   0   0   0   0   
      0   0   0   0   0   
      0   0   0   0   0   
      0   0   0   0   0   
      0   0   0   0   0   
      0   0   0   0   0   
      0   0   0   0   0   
      0   0   0   0   0   
      0   0   0   0   0   
      0   0   0   0   0   
      0   0   0   0   0   
      0   0   0   0   0   
      0   0   0   0   0   
      0   0   0   0   0   
      0   0   0   0   0   
      0   0   0   0   0   
      0   0   0   0   0   
      0   0   0   0   0   
      0   0   0   0   0   
      0   0   0   0   0   
      0   0   0   0   0   
      0   0   0   0   0   
      0   0   0   0   0   
      0   0   0   0   0   
      0   0   0   0   0   
      0   0   0   0   0   
      0   0   0   0   0   
      0   0   0   0   0   
      0   0   0   0   0   
      0   0   0   0   0   
      0   0   0   0   0   
      0   0   0   0   0   
      0   0   0   0   0   
      0   0   0   0   0   
      0   0   0   0   0   
      0   0   0   0   0   
      0   0   0   0   0   
      0   0   0   0   0   
      0   0   0   0   0   
      0   0   0   0   0   
      0   0   0   0   0   
      0   0   0   0   0   
      0   0   0   0   0   
      0   0   0   0   0   
      0   0   0   0   0   
      0   0   0   0   0   
      0   0   0   0   0   
      0   0   0   0   0   
      0   0   0   0   0   
      0   0   0   0   0   
      0   0   0   0   0   
      0   0   0   0   0   
      0   0   0   0   0   
      0   0   0   0   0   
      0   0   0   0   0   
      0   0   0   0   0   
      0   0   0   0   0   
      0   0   0   0   0   
      0   0   0   0   0   
      0   0   0   0   0   
      0   0   0   0   0   
      0   0   0   0   0   
      0   0   0   0   0   
      0   0   0   0   0   
      0   0   0   0   0   
      0   0   0   0   0   
      0   0   0   0   0   
      0   0   0   0   0   
      0   0   0   0   0   
      0   0   0   0   0   
      0   0   0   0   0   
      0   0   0   0   0   
      0   0   0   0   0   
      0   0   0   0   0   
      0   0   0   0   0   
      0   0   0   0   0   
      0   0   0   0   0   
      0   0   0   0   0   
      0   0   0   0   0   
      0   0   0   0   0   
      0   0   0   0   0   
      0   0   0   0   0   
      0   0   0   0   0   
      0   0   0   0   0   
      0   0   0   0   0   
      0   0   0   0   0   
      0   0   0   0   0   
      0   0   0   0   0   
      0   0   0   0   0   
      0   0   0   0   0   
      0   0   0   0   0   
      0   0   0   0   0   
      0   0   0   0   0   
      0   0   0   0   0   
      0   0   0   0   0   
      0   0   0   0   0   
      0   0   0   0   0   
      0   0   0   0   0   
      0   0   0   0   0   
      0   0   0   0   0   
      0   0   0   0   0   
      0   0   0   0   0   
      0   0   0   0   0   
      0   0   0   0   0   
      0   0   0   0   0   
      0   0   0   0   0   
      0   0   0   0   0   
      0   0   0   0   0   
      0   0   0   0   0   
      0   0   0   0   0   
      0   0   0   0   0   
      0   0   0   0   0   
      0   0   0   0   0   
      0   0   0   0   0   
      0   0   0   0   0   
      0   0   0   0   0   
      0   0   0   0   0   
      0   0   0   0   0   
      0   0   0   0   0   
      0   0   0   0   0   
      0   0   0   0   0   
      0   0   0   0   0   
      0   0   0   0   0   
      0   0   0   0   0   
      0   0   0   0   0   
      0   0   0   0   0   
      0   0   0   0   0   
      0   0   0   0   0   
      0   0   0   0   0   
      0   0   0   0   0   
      0   0   0   0   0   
      0   0   0   0   0   
      0   0   0   0   0   
      0   0   0   0   0   
      0   0   0   0   0   
      0   0   0   0   0   
      0   0   0   0   0   
      0   0   0   0   0   
      0   0   0   0   0   
      0   0   0   0   0   
      0   0   0   0   0   
      0   0   0   0   0   
      0   0   0   0   0   
      0   0   0   0   0   
      0   0   0   0   0   
      0   0   0   0   0   
      0   0   0   0   0   
      0   0   0   0   0   
      0   0   0   0   0   
      0   0   0   0   0   
      0   0   0   0   0   
      0   0   0   0   0   
      0   0   0   0   0   
      0   0   0   0   0   
      0   0   0   0   0   
      0   0   0   0   0   
      0   0   0   0   0   
      0   0   0   0   0   
      0   0   0   0   0   
      0   0   0   0   0   
      0   0   0   0   0   
      0   0   0   0   0   
      0   0   0   0   0   
      0   0   0   0   0   
      0   0   0   0   0   
      0   0   0   0   0   
      0   0   0   0   0   
      0   0   0   0   0   
      0   0   0   0   0   
      0   0   0   0   0   
      0   0   0   0   0   
      0   0   0   0   0   
      0   0   0   0   0   
      0   0   0   0   0   
      0   0   0   0   0   
      0   0   0   0   0   
      0   0   0   0   0   
      0   0   0   0   0   
      0   0   0   0   0   
      0   0   0   0   0   
      0   0   0   0   0   
      0   0   0   0   0   
      0   0   0   0   0   
      0   0   0   0   0   
      0   0   0   0   0   
      0   0   0   0   0   
      0   0   0   0   0   
      0   0   0   0   0   
      0   0   0   0   0   
      0   0   0   0   0   
      0   0   0   0   0   
      0   0   0   0   0   
      0   0   0   0   0   
      0   0   0   0   0   
      0   0   0   0   0   
      0   0   0   0   0   
      0   0   0   0   0   
      0   0   0   0   0   
      0   0   0   0   0   
      0   0   0   0   0   
      0.573507766867   0.573495435539   0.573458475733   0.573396990424   0.573311152694   
      0.573201207905   0.573067476727   0.572910358987   0.572730338307   0.572527987478   
      0.572303974498   0.572059069175   0.571794150175   0.571510212336   0.571208374071   
      0.570889884592   0.570556130678   0.570208642656   0.569849099208   0.569479330598   
      0.56910131988   0.568717201642   0.568329257829   0.567939910246   0.567551709355   
      0.567167319109   0.566789497608   0.566421073557   0.566064918603   0.565723915837   
      0.565400924884   0.565098744228   0.564820071526   0.564567462872   0.564343292037   
      0.564149710822   0.563988611687   0.563861593781   0.563769933482   0.56371456037   
      0.563696039477   0.56371456037   0.563769933482   0.563861593781   0.563988611687   
      0.564149710822   0.564343292037   0.564567462872   0.564820071526   0.565098744228   
      0.565400924884   0.565723915837   0.566064918603   0.566421073557   0.566789497608   
      0.567167319109   0.567551709355   0.567939910246   0.568329257829   0.568717201642   
      0.56910131988   0.569479330598   0.569849099208   0.570208642656   0.570556130678   
      0.570889884592   0.571208374071   0.571510212336   0.571794150175   0.572059069175   
      0.572303974498   0.572527987478   0.572730338307   0.572910358987   0.573067476727   
      0.573201207905   0.573311152694   0.573396990424   0.573458475733   0.573495435539   
      0.461758312606   0.461741210756   0.461689952059   0.46160467772   0.461485625229   
      0.46133313157   0.461147637674   0.460929694078   0.46067996772   0.460399249791   
      0.460088464529   0.459748678789   0.459381112195   0.458987147632   0.458568341755   
      0.458126435171   0.457663361842   0.457181257249   0.456682464755   0.456169539604   
      0.455645249935   0.455112574206   0.454574694438   0.45403498474   0.453496994661   
      0.452964427042   0.452441110188   0.451930964376   0.451437962904   0.450966088133   
      0.450519283188   0.450101400209   0.44971614625   0.449367028094   0.449057297378   
      0.448789897506   0.44856741385   0.448392028691   0.448265482261   0.448189041097   
      0.448163474675   0.448189041097   0.448265482261   0.448392028691   0.44856741385   
      0.448789897506   0.449057297378   0.449367028094   0.44971614625   0.450101400209   
      0.450519283188   0.450966088133   0.451437962904   0.451930964376   0.452441110188   
      0.452964427042   0.453496994661   0.45403498474   0.454574694438   0.455112574206   
      0.455645249935   0.456169539604   0.456682464755   0.457181257249   0.457663361842   
      0.458126435171   0.458568341755   0.458987147632   0.459381112195   0.459748678789   
      0.460088464529   0.460399249791   0.46067996772   0.460929694078   0.461147637674   
      0.46133313157   0.461485625229   0.46160467772   0.461689952059   0.461741210756   
      0.436944376155   0.436922246191   0.43685591973   0.4367455879   0.436591572006   
      0.436394327648   0.436154450416   0.435872683093   0.435549924285   0.435187238313   
      0.434785866212   0.434347237607   0.433872983166   0.433364947287   0.4328252006   
      0.432256051783   0.431660058132   0.431040034255   0.430399058207   0.429740474346   
      0.429067892181   0.428385180495   0.427696456083   0.427006066537   0.426318566618   
      0.425638687969   0.424971302068   0.424321376607   0.423693925689   0.423093954526   
      0.422526399546   0.421996065069   0.421507557895   0.421065221317   0.420673070166   
      0.420334728542   0.420053371875   0.419831674877   0.419671766808   0.41957519531   
      0.419542899821   0.41957519531   0.419671766808   0.419831674877   0.420053371875   
      0.420334728542   0.420673070166   0.421065221317   0.421507557895   0.421996065069   
      0.422526399546   0.423093954526   0.423693925689   0.424321376607   0.424971302068   
      0.425638687969   0.426318566618   0.427006066537   0.427696456083   0.428385180495   
      0.429067892181   0.429740474346   0.430399058207   0.431040034255   0.431660058132   
      0.432256051783   0.4328252006   0.433364947287   0.433872983166   0.434347237607   
      0.434785866212   0.435187238313   0.435549924285   0.435872683093   0.436154450416   
      0.436394327648   0.436591572006   0.4367455879   0.43685591973   0.436922246191   
      0.412373636116   0.412346498851   0.41226516998   0.412129899263   0.411941106237   
      0.411699385072   0.411405511278   0.411060450141   0.410665366765   0.410221637496   
      0.409730862503   0.409194879181   0.408615776003   0.407995906345   0.407337901748   
      0.406644683991   0.405919475279   0.405165805791   0.404387517785   0.403588765458   
      0.402774009738   0.40194800728   0.401115793009   0.40028265569   0.399454106197   
      0.39863583836   0.397833682523   0.39705355221   0.396301384558   0.395583075462   
      0.39490441058   0.394270993592   0.393688173228   0.393160970694   0.392694009179   
      0.392291447082   0.391956916558   0.391693468836   0.391503527604   0.391388851582   
      0.391350507133   0.391388851582   0.391503527604   0.391693468836   0.391956916558   
      0.392291447082   0.392694009179   0.393160970694   0.393688173228   0.394270993592   
      0.39490441058   0.395583075462   0.396301384558   0.39705355221   0.397833682523   
      0.39863583836   0.399454106197   0.40028265569   0.401115793009   0.40194800728   
      0.402774009738   0.403588765458   0.404387517785   0.405165805791   0.405919475279   
      0.406644683991   0.407337901748   0.407995906345   0.408615776003   0.409194879181   
      0.409730862503   0.410221637496   0.410665366765   0.411060450141   0.411405511278   
      0.411699385072   0.411941106237   0.412129899263   0.41226516998   0.412346498851   
      0.393098301071   0.393067385891   0.392974741238   0.392820670843   0.392605684473   
      0.392330503191   0.391996066586   0.39160354182   0.391154334311   0.390650099785   
      0.390092757378   0.389484503388   0.388827825194   0.388125514792   0.387380681287   
      0.386596761623   0.385777528773   0.384927096535   0.3840499201   0.383150791529   
      0.382234829376   0.38130746174   0.380374402216   0.379441618364   0.378515292578   
      0.377601775443   0.376707531999   0.375839081543   0.375002931919   0.374205509442   
      0.373453085812   0.372751703502   0.372107101201   0.371524640884   0.371009238077   
      0.370565296759   0.37019665024   0.369906509176   0.36969741771   0.369571218555   
      0.369529027608   0.369571218555   0.36969741771   0.369906509176   0.37019665024   
      0.370565296759   0.371009238077   0.371524640884   0.372107101201   0.372751703502   
      0.373453085812   0.374205509442   0.375002931919   0.375839081543   0.376707531999   
      0.377601775443   0.378515292578   0.379441618364   0.380374402216   0.38130746174   
      0.382234829376   0.383150791529   0.3840499201   0.384927096535   0.385777528773   
      0.386596761623   0.387380681287   0.388125514792   0.388827825194   0.389484503388   
      0.390092757378   0.390650099785   0.391154334311   0.39160354182   0.391996066586   
      0.392330503191   0.392605684473   0.392820670843   0.392974741238   0.393067385891   
      0.378023105535   0.377989620149   0.377889279681   0.377722432312   0.377489662013   
      0.377191793962   0.37682990196   0.376405317663   0.375919641391   0.375374754192   
      0.374772830793   0.374116352945   0.373408122615   0.372651274386   0.371849286338   
      0.371005988606   0.370125568791   0.369212573329   0.368271903977   0.367308808575   
      0.366328865386   0.365337960414   0.364342257301   0.36334815965   0.362362265836   
      0.361391316696   0.360442136724   0.359521569692   0.358636409836   0.357793329939   
      0.35699880777   0.356259052394   0.355579931867   0.354966903767   0.354424949887   
      0.353958516247   0.353571459445   0.353267000118   0.353047684159   0.352915352144   
      0.352871117288   0.352915352144   0.353047684159   0.353267000118   0.353571459445   
      0.353958516247   0.354424949887   0.354966903767   0.355579931867   0.356259052394   
      0.35699880777   0.357793329939   0.358636409836   0.359521569692   0.360442136724   
      0.361391316696   0.362362265836   0.36334815965   0.364342257301   0.365337960414   
      0.366328865386   0.367308808575   0.368271903977   0.369212573329   0.370125568791   
      0.371005988606   0.371849286338   0.372651274386   0.373408122615   0.374116352945   
      0.374772830793   0.375374754192   0.375919641391   0.376405317663   0.37682990196   
      0.377191793962   0.377489662013   0.377722432312   0.377889279681   0.377989620149   
      0.367169231623   0.367134173599   0.367029126215   0.366854470644   0.36661084587   
      0.366299154126   0.365920568309   0.365476541154   0.364968815901   0.364399438074   
      0.363770767952   0.363085493189   0.362346640972   0.361557589012   0.360722074592   
      0.359844200836   0.358928439309   0.357979628095   0.357002964483   0.356003991511   
      0.354988577728   0.353962889709   0.352933357093   0.351906630149   0.350889530182   
      0.349888993361   0.348912008816   0.347965552141   0.347056515573   0.346191636307   
      0.345377424442   0.344620092043   0.343925484736   0.343299017105   0.342745612974   
      0.342269651464   0.34187491949   0.341564571163   0.341341094391   0.341206284851   
      0.341161227387   0.341206284851   0.341341094391   0.341564571163   0.34187491949   
      0.342269651464   0.342745612974   0.343299017105   0.343925484736   0.344620092043   
      0.345377424442   0.346191636307   0.347056515573   0.347965552141   0.348912008816   
      0.349888993361   0.350889530182   0.351906630149   0.352933357093   0.353962889709   
      0.354988577728   0.356003991511   0.357002964483   0.357979628095   0.358928439309   
      0.359844200836   0.360722074592   0.361557589012   0.362346640972   0.363085493189   
      0.363770767952   0.364399438074   0.364968815901   0.365476541154   0.365920568309   
      0.366299154126   0.36661084587   0.366854470644   0.367029126215   0.367134173599   
      0.36021853975   0.360182612801   0.360074965864   0.359896001785   0.359646395655   
      0.359327100212   0.358939353193   0.358484686381   0.35796493605   0.357382254421   
      0.356739121633   0.356038357669   0.355283133591   0.354476981315   0.353623801135   
      0.352727866136   0.351793822581   0.350826685442   0.349831828214   0.348814966329   
      0.347782133602   0.346739651339   0.345694090019   0.34465222369   0.343620977558   
      0.342607369489   0.341618446466   0.34066121721   0.339742582389   0.33886926389   
      0.338047734685   0.337284150707   0.336584286068   0.335953472735   0.335396545552   
      0.334917793278   0.33452091606   0.334208989566   0.333984435835   0.333849000795   
      0.333803738332   0.333849000795   0.333984435835   0.334208989566   0.33452091606   
      0.334917793278   0.335396545552   0.335953472735   0.336584286068   0.337284150707   
      0.338047734685   0.33886926389   0.339742582389   0.34066121721   0.341618446466   
      0.342607369489   0.343620977558   0.34465222369   0.345694090019   0.346739651339   
      0.347782133602   0.348814966329   0.349831828214   0.350826685442   0.351793822581   
      0.352727866136   0.353623801135   0.354476981315   0.355283133591   0.356038357669   
      0.356739121633   0.357382254421   0.35796493605   0.358484686381   0.358939353193   
      0.359327100212   0.359646395655   0.359896001785   0.360074965864   0.360182612801   
      0.356845003035   0.356808696279   0.3566999135   0.356519068278   0.356266853573   
      0.355944247104   0.355552518639   0.355093238953   0.354568290129   0.353979876802   
      0.353330537825   0.352623157792   0.351860977721   0.351047604148   0.350187015792   
      0.349283566934   0.348341986602   0.347367372712   0.346365180353   0.345341203546   
      0.344301549945   0.343252608204   0.34220100795   0.341153572608   0.340117265629   
      0.33909913093   0.338106228658   0.33714556756   0.336224035414   0.335348329038   
      0.334524885384   0.333759815118   0.333058839946   0.332427234718   0.331869775112   
      0.331390691417   0.330993628738   0.330681613694   0.330457027567   0.330321585728   
      0.330276323136   0.330321585728   0.330457027567   0.330681613694   0.330993628738   
      0.331390691417   0.331869775112   0.332427234718   0.333058839946   0.333759815118   
      0.334524885384   0.335348329038   0.336224035414   0.33714556756   0.338106228658   
      0.33909913093   0.340117265629   0.341153572608   0.34220100795   0.343252608204   
      0.344301549945   0.345341203546   0.346365180353   0.347367372712   0.348341986602   
      0.349283566934   0.350187015792   0.351047604148   0.351860977721   0.352623157792   
      0.353330537825   0.353979876802   0.354568290129   0.355093238953   0.355552518639   
      0.355944247104   0.356266853573   0.356519068278   0.3566999135   0.356808696279   
      0.356845003035   0.356808696279   0.3566999135   0.356519068278   0.356266853573   
      0.355944247104   0.355552518639   0.355093238953   0.354568290129   0.353979876802   
      0.353330537825   0.352623157792   0.351860977721   0.351047604148   0.350187015792   
      0.349283566934   0.348341986602   0.347367372712   0.346365180353   0.345341203546   
      0.344301549945   0.343252608204   0.34220100795   0.341153572608   0.340117265629   
      0.33909913093   0.338106228658   0.33714556756   0.336224035414   0.335348329038   
      0.334524885384   0.333759815118   0.333058839946   0.332427234718   0.331869775112   
      0.331390691417   0.330993628738   0.330681613694   0.330457027567   0.330321585728   
      0.330276323136   0.330321585728   0.330457027567   0.330681613694   0.330993628738   
      0.331390691417   0.331869775112   0.332427234718   0.333058839946   0.333759815118   
      0.334524885384   0.335348329038   0.336224035414   0.33714556756   0.338106228658   
      0.33909913093   0.340117265629   0.341153572608   0.34220100795   0.343252608204   
      0.344301549945   0.345341203546   0.346365180353   0.347367372712   0.348341986602   
      0.349283566934   0.350187015792   0.351047604148   0.351860977721   0.352623157792   
      0.353330537825   0.353979876802   0.354568290129   0.355093238953   0.355552518639   
      0.355944247104   0.356266853573   0.356519068278   0.3566999135   0.356808696279   
      0.36021853975   0.360182612801   0.360074965864   0.359896001785   0.359646395655   
      0.359327100212   0.358939353193   0.358484686381   0.35796493605   0.357382254421   
      0.356739121633   0.356038357669   0.355283133591   0.354476981315   0.353623801135   
      0.352727866136   0.351793822581   0.350826685442   0.349831828214   0.348814966329   
      0.347782133602   0.346739651339   0.345694090019   0.34465222369   0.343620977558   
      0.342607369489   0.341618446466   0.34066121721   0.339742582389   0.33886926389   
      0.338047734685   0.337284150707   0.336584286068   0.335953472735   0.335396545552   
      0.334917793278   0.33452091606   0.334208989566   0.333984435835   0.333849000795   
      0.333803738332   0.333849000795   0.333984435835   0.334208989566   0.33452091606   
      0.334917793278   0.335396545552   0.335953472735   0.336584286068   0.337284150707   
      0.338047734685   0.33886926389   0.339742582389   0.34066121721   0.341618446466   
      0.342607369489   0.343620977558   0.34465222369   0.345694090019   0.346739651339   
      0.347782133602   0.348814966329   0.349831828214   0.350826685442   0.351793822581   
      0.352727866136   0.353623801135   0.354476981315   0.355283133591   0.356038357669   
      0.356739121633   0.357382254421   0.35796493605   0.358484686381   0.358939353193   
      0.359327100212   0.359646395655   0.359896001785   0.360074965864   0.360182612801   
      0.367169231623   0.367134173599   0.367029126215   0.366854470644   0.36661084587   
      0.366299154126   0.365920568309   0.365476541154   0.364968815901   0.364399438074   
      0.363770767952   0.363085493189   0.362346640972   0.361557589012   0.360722074592   
      0.359844200836   0.358928439309   0.357979628095   0.357002964483   0.356003991511   
      0.354988577728   0.353962889709   0.352933357093   0.351906630149   0.350889530182   
      0.349888993361   0.348912008816   0.347965552141   0.347056515573   0.346191636307   
      0.345377424442   0.344620092043   0.343925484736   0.343299017105   0.342745612974   
      0.342269651464   0.34187491949   0.341564571163   0.341341094391   0.341206284851   
      0.341161227387   0.341206284851   0.341341094391   0.341564571163   0.34187491949   
      0.342269651464   0.342745612974   0.343299017105   0.343925484736   0.344620092043   
      0.345377424442   0.346191636307   0.347056515573   0.347965552141   0.348912008816   
      0.349888993361   0.350889530182   0.351906630149   0.352933357093   0.353962889709   
      0.354988577728   0.356003991511   0.357002964483   0.357979628095   0.358928439309   
      0.359844200836   0.360722074592   0.361557589012   0.362346640972   0.363085493189   
      0.363770767952   0.364399438074   0.364968815901   0.365476541154   0.365920568309   
      0.366299154126   0.36661084587   0.366854470644   0.367029126215   0.367134173599   
      0.378023105535   0.377989620149   0.377889279681   0.377722432312   0.377489662013   
      0.377191793962   0.37682990196   0.376405317663   0.375919641391   0.375374754192   
      0.374772830793   0.374116352945   0.373408122615   0.372651274386   0.371849286338   
      0.371005988606   0.370125568791   0.369212573329   0.368271903977   0.367308808575   
      0.366328865386   0.365337960414   0.364342257301   0.36334815965   0.362362265836   
      0.361391316696   0.360442136724   0.359521569692   0.358636409836   0.357793329939   
      0.35699880777   0.356259052394   0.355579931867   0.354966903767   0.354424949887   
      0.353958516247   0.353571459445   0.353267000118   0.353047684159   0.352915352144   
      0.352871117288   0.352915352144   0.353047684159   0.353267000118   0.353571459445   
      0.353958516247   0.354424949887   0.354966903767   0.355579931867   0.356259052394   
      0.35699880777   0.357793329939   0.358636409836   0.359521569692   0.360442136724   
      0.361391316696   0.362362265836   0.36334815965   0.364342257301   0.365337960414   
      0.366328865386   0.367308808575   0.368271903977   0.369212573329   0.370125568791   
      0.371005988606   0.371849286338   0.372651274386   0.373408122615   0.374116352945   
      0.374772830793   0.375374754192   0.375919641391   0.376405317663   0.37682990196   
      0.377191793962   0.377489662013   0.377722432312   0.377889279681   0.377989620149   
      0.393098301071   0.393067385891   0.392974741238   0.392820670843   0.392605684473   
      0.392330503191   0.391996066586   0.39160354182   0.391154334311   0.390650099785   
      0.390092757378   0.389484503388   0.388827825194   0.388125514792   0.387380681287   
      0.386596761623   0.385777528773   0.384927096535   0.3840499201   0.383150791529   
      0.382234829376   0.38130746174   0.380374402216   0.379441618364   0.378515292578   
      0.377601775443   0.376707531999   0.375839081543   0.375002931919   0.374205509442   
      0.373453085812   0.372751703502   0.372107101201   0.371524640884   0.371009238077   
      0.370565296759   0.37019665024   0.369906509176   0.36969741771   0.369571218555   
      0.369529027608   0.369571218555   0.36969741771   0.369906509176   0.37019665024   
      0.370565296759   0.371009238077   0.371524640884   0.372107101201   0.372751703502   
      0.373453085812   0.374205509442   0.375002931919   0.375839081543   0.376707531999   
      0.377601775443   0.378515292578   0.379441618364   0.380374402216   0.38130746174   
      0.382234829376   0.383150791529   0.3840499201   0.384927096535   0.385777528773   
      0.386596761623   0.387380681287   0.388125514792   0.388827825194   0.389484503388   
      0.390092757378   0.390650099785   0.391154334311   0.39160354182   0.391996066586   
      0.392330503191   0.392605684473   0.392820670843   0.392974741238   0.393067385891   
      0.412373636116   0.412346498851   0.41226516998   0.412129899263   0.411941106237   