<?xml version="1.0"?>
<VTKFile type="ImageData" version="0.1" byte_order="LittleEndian">
  <ImageData WholeExtent="0 79 0 19 0 19" Origin="0 0 0" Spacing="1 1 1">
  <Piece Extent="0 79 0 19 0 19">
    <PointData Scalars="density">
       <DataArray type="Float32" Name="bluedensity" NumberOfComponents="1" format="ascii">
      0   0   0   0   0   
      0   0   0   0   0   
      0   0   0   0   0   
      0   0   0   0   0   
      0   0   0   0   0   
      0   0   0   0   0   
      0   0   0   0   0   
      0   0   0   0   0   
      0   0   0   0   0   
      0   0   0   0   0   
      0   0   0   0   0   
      0   0   0   0   0   
      0   0   0   0   0   
      0   0   0   0   0   
      0   0   0   0   0   
      0   0   0   0   0   
      0   0   0   0   0   
      0   0   0   0   0   
      0   0   0   0   0   
      0   0   0   0   0   
      0   0   0   0   0   
      0   0   0   0   0   
      0   0   0   0   0   
      0   0   0   0   0   
      0   0   0   0   0   
      0   0   0   0   0   
      0   0   0   0   0   
      0   0   0   0   0   
      0   0   0   0   0   
      0   0   0   0   0   
      0   0   0   0   0   
      0   0   0   0   0   
      0   0   0   0   0   
      0   0   0   0   0   
      0   0   0   0   0   
      0   0   0   0   0   
      0   0   0   0   0   
      0   0   0   0   0   
      0   0   0   0   0   
      0   0   0   0   0   
      0   0   0   0   0   
      0   0   0   0   0   
      0   0   0   0   0   
      0   0   0   0   0   
      0   0   0   0   0   
      0   0   0   0   0   
      0   0   0   0   0   
      0   0   0   0   0   
      0   0   0   0   0   
      0   0   0   0   0   
      0   0   0   0   0   
      0   0   0   0   0   
      0   0   0   0   0   
      0   0   0   0   0   
      0   0   0   0   0   
      0   0   0   0   0   
      0   0   0   0   0   
      0   0   0   0   0   
      0   0   0   0   0   
      0   0   0   0   0   
      0   0   0   0   0   
      0   0   0   0   0   
      0   0   0   0   0   
      0   0   0   0   0   
      0   0   0   0   0   
      0   0   0   0   0   
      0   0   0   0   0   
      0   0   0   0   0   
      0   0   0   0   0   
      0   0   0   0   0   
      0   0   0   0   0   
      0   0   0   0   0   
      0   0   0   0   0   
      0   0   0   0   0   
      0   0   0   0   0   
      0   0   0   0   0   
      0   0   0   0   0   
      0   0   0   0   0   
      0   0   0   0   0   
      0   0   0   0   0   
      0   0   0   0   0   
      0   0   0   0   0   
      0   0   0   0   0   
      0   0   0   0   0   
      0   0   0   0   0   
      0   0   0   0   0   
      0   0   0   0   0   
      0   0   0   0   0   
      0   0   0   0   0   
      0   0   0   0   0   
      0   0   0   0   0   
      0   0   0   0   0   
      0   0   0   0   0   
      0   0   0   0   0   
      0   0   0   0   0   
      0   0   0   0   0   
      0   0   0   0   0   
      0   0   0   0   0   
      0   0   0   0   0   
      0   0   0   0   0   
      0   0   0   0   0   
      0   0   0   0   0   
      0   0   0   0   0   
      0   0   0   0   0   
      0   0   0   0   0   
      0   0   0   0   0   
      0   0   0   0   0   
      0   0   0   0   0   
      0   0   0   0   0   
      0   0   0   0   0   
      0   0   0   0   0   
      0   0   0   0   0   
      0   0   0   0   0   
      0   0   0   0   0   
      0   0   0   0   0   
      0   0   0   0   0   
      0   0   0   0   0   
      0   0   0   0   0   
      0   0   0   0   0   
      0   0   0   0   0   
      0   0   0   0   0   
      0   0   0   0   0   
      0   0   0   0   0   
      0   0   0   0   0   
      0   0   0   0   0   
      0   0   0   0   0   
      0   0   0   0   0   
      0   0   0   0   0   
      0   0   0   0   0   
      0   0   0   0   0   
      0   0   0   0   0   
      0   0   0   0   0   
      0   0   0   0   0   
      0   0   0   0   0   
      0   0   0   0   0   
      0   0   0   0   0   
      0   0   0   0   0   
      0   0   0   0   0   
      0   0   0   0   0   
      0   0   0   0   0   
      0   0   0   0   0   
      0   0   0   0   0   
      0   0   0   0   0   
      0   0   0   0   0   
      0   0   0   0   0   
      0   0   0   0   0   
      0   0   0   0   0   
      0   0   0   0   0   
      0   0   0   0   0   
      0   0   0   0   0   
      0   0   0   0   0   
      0   0   0   0   0   
      0   0   0   0   0   
      0   0   0   0   0   
      0   0   0   0   0   
      0   0   0   0   0   
      0   0   0   0   0   
      0   0   0   0   0   
      0   0   0   0   0   
      0   0   0   0   0   
      0   0   0   0   0   
      0   0   0   0   0   
      0   0   0   0   0   
      0   0   0   0   0   
      0   0   0   0   0   
      0   0   0   0   0   
      0   0   0   0   0   
      0   0   0   0   0   
      0   0   0   0   0   
      0   0   0   0   0   
      0   0   0   0   0   
      0   0   0   0   0   
      0   0   0   0   0   
      0   0   0   0   0   
      0   0   0   0   0   
      0   0   0   0   0   
      0   0   0   0   0   
      0   0   0   0   0   
      0   0   0   0   0   
      0   0   0   0   0   
      0   0   0   0   0   
      0   0   0   0   0   
      0   0   0   0   0   
      0   0   0   0   0   
      0   0   0   0   0   
      0   0   0   0   0   
      0   0   0   0   0   
      0   0   0   0   0   
      0   0   0   0   0   
      0   0   0   0   0   
      0   0   0   0   0   
      0   0   0   0   0   
      0   0   0   0   0   
      0   0   0   0   0   
      0   0   0   0   0   
      0   0   0   0   0   
      0   0   0   0   0   
      0   0   0   0   0   
      0   0   0   0   0   
      0   0   0   0   0   
      0   0   0   0   0   
      0   0   0   0   0   
      0   0   0   0   0   
      0   0   0   0   0   
      0   0   0   0   0   
      0   0   0   0   0   
      0   0   0   0   0   
      0   0   0   0   0   
      0   0   0   0   0   
      0   0   0   0   0   
      0   0   0   0   0   
      0   0   0   0   0   
      0   0   0   0   0   
      0   0   0   0   0   
      0   0   0   0   0   
      0   0   0   0   0   
      0   0   0   0   0   
      0   0   0   0   0   
      0   0   0   0   0   
      0   0   0   0   0   
      0   0   0   0   0   
      0   0   0   0   0   
      0   0   0   0   0   
      0   0   0   0   0   
      0   0   0   0   0   
      0   0   0   0   0   
      0   0   0   0   0   
      0   0   0   0   0   
      0   0   0   0   0   
      0   0   0   0   0   
      0   0   0   0   0   
      0   0   0   0   0   
      0   0   0   0   0   
      0   0   0   0   0   
      0   0   0   0   0   
      0   0   0   0   0   
      0   0   0   0   0   
      0   0   0   0   0   
      0   0   0   0   0   
      0   0   0   0   0   
      0   0   0   0   0   
      0   0   0   0   0   
      0   0   0   0   0   
      0   0   0   0   0   
      0   0   0   0   0   
      0   0   0   0   0   
      0   0   0   0   0   
      0   0   0   0   0   
      0   0   0   0   0   
      0   0   0   0   0   
      0   0   0   0   0   
      0   0   0   0   0   
      0   0   0   0   0   
      0   0   0   0   0   
      0   0   0   0   0   
      0   0   0   0   0   
      0   0   0   0   0   
      0   0   0   0   0   
      0   0   0   0   0   
      0   0   0   0   0   
      0   0   0   0   0   
      0   0   0   0   0   
      0   0   0   0   0   
      0   0   0   0   0   
      0   0   0   0   0   
      0   0   0   0   0   
      0   0   0   0   0   
      0   0   0   0   0   
      0   0   0   0   0   
      0   0   0   0   0   
      0   0   0   0   0   
      0   0   0   0   0   
      0   0   0   0   0   
      0   0   0   0   0   
      0   0   0   0   0   
      0   0   0   0   0   
      0   0   0   0   0   
      0   0   0   0   0   
      0   0   0   0   0   
      0   0   0   0   0   
      0   0   0   0   0   
      0   0   0   0   0   
      0   0   0   0   0   
      0   0   0   0   0   
      0   0   0   0   0   
      0   0   0   0   0   
      0   0   0   0   0   
      0   0   0   0   0   
      0   0   0   0   0   
      0   0   0   0   0   
      0   0   0   0   0   
      0   0   0   0   0   
      0   0   0   0   0   
      0   0   0   0   0   
      0   0   0   0   0   
      0   0   0   0   0   
      0   0   0   0   0   
      0   0   0   0   0   
      0   0   0   0   0   
      0   0   0   0   0   
      0   0   0   0   0   
      0   0   0   0   0   
      0   0   0   0   0   
      0   0   0   0   0   
      0   0   0   0   0   
      0   0   0   0   0   
      0   0   0   0   0   
      0   0   0   0   0   
      0   0   0   0   0   
      0   0   0   0   0   
      0   0   0   0   0   
      0   0   0   0   0   
      0   0   0   0   0   
      0   0   0   0   0   
      0   0   0   0   0   
      0   0   0   0   0   
      0   0   0   0   0   
      0   0   0   0   0   
      0   0   0   0   0   
      0   0   0   0   0   
      0   0   0   0   0   
      0   0   0   0   0   
      0   0   0   0   0   
      0   0   0   0   0   
      0   0   0   0   0   
      0   0   0   0   0   
      0   0   0   0   0   
      0   0   0   0   0   
      0   0   0   0   0   
      0   0   0   0   0   
      0   0   0   0   0   
      0   0   0   0   0   
      0   0   0   0   0   
      0   0   0   0   0   
      0   0   0   0   0   
      0   0   0   0   0   
      0.573860586631   0.573847367168   0.573807742144   0.573741812153   0.573649746534   
      0.573531785881   0.57338824555   0.573219520149   0.573026088975   0.572808522362   
      0.572567488881   0.572303763289   0.572018235125   0.571711917764   0.57138595773   
      0.571041644003   0.570680416983   0.570303876748   0.569913790145   0.569512096231   
      0.569100909529   0.568682520541   0.568259392944   0.567834156939   0.567409598263   
      0.56698864245   0.566574334087   0.566169810917   0.565778272872   0.565402946289   
      0.565047043819   0.564713720732   0.564406028555   0.564126867157   0.563878936564   
      0.563664689874   0.563486288707   0.563345562596   0.563243973672   0.563182587825   
      0.563162053352   0.563182587825   0.563243973672   0.563345562596   0.563486288707   
      0.563664689874   0.563878936564   0.564126867157   0.564406028555   0.564713720732   
      0.565047043819   0.565402946289   0.565778272872   0.566169810917   0.566574334087   
      0.56698864245   0.567409598263   0.567834156939   0.568259392944   0.568682520541   
      0.569100909529   0.569512096231   0.569913790145   0.570303876748   0.570680416983   
      0.571041644003   0.57138595773   0.571711917764   0.572018235125   0.572303763289   
      0.572567488881   0.572808522362   0.573026088975   0.573219520149   0.57338824555   
      0.573531785881   0.573649746534   0.573741812153   0.573807742144   0.573847367168   
      0.462259116051   0.462240786203   0.462185842183   0.462094421307   0.461966754925   
      0.461803172141   0.461604104995   0.461370095085   0.461101801566   0.460800010462   
      0.460465645181   0.460099778081   0.459703642899   0.459278647765   0.458826388486   
      0.458348661695   0.457847477374   0.45732507019   0.456783909018   0.456226703923   
      0.455656409893   0.455076226515   0.454489592877   0.453900176967   0.453311858969   
      0.452728707985   0.452154951893   0.451594940277   0.451053100622   0.450533888257   
      0.450041730787   0.449580968081   0.449155789114   0.448770167181   0.448427795192   
      0.448132022842   0.447885797493   0.447691610559   0.447551451055   0.447466767815   
      0.447438441568   0.447466767815   0.447551451055   0.447691610559   0.447885797493   
      0.448132022842   0.448427795192   0.448770167181   0.449155789114   0.449580968081   
      0.450041730787   0.450533888257   0.451053100622   0.451594940277   0.452154951893   
      0.452728707985   0.453311858969   0.453900176967   0.454489592877   0.455076226515   
      0.455656409893   0.456226703923   0.456783909018   0.45732507019   0.457847477374   
      0.458348661695   0.458826388486   0.459278647765   0.459703642899   0.460099778081   
      0.460465645181   0.460800010462   0.461101801566   0.461370095085   0.461604104995   
      0.461803172141   0.461966754925   0.462094421307   0.462185842183   0.462240786203   
      0.437600690928   0.437576957914   0.437505820925   0.437387467083   0.437222211487   
      0.437010502031   0.436752926094   0.436450219059   0.436103274555   0.435713156314   
      0.435281111463   0.434808585018   0.434297235303   0.433748949893   0.433165861628   
      0.432550364153   0.431905126312   0.431233104672   0.430537553362   0.429822030329   
      0.429090399131   0.428346825347   0.427595766743   0.426841956458   0.426090378581   
      0.425346235711   0.424614908346   0.423901906214   0.423212811988   0.422553218129   
      0.421928657945   0.421344532224   0.42080603306   0.420318066699   0.419885177345   
      0.419511473931   0.419200561853   0.418955481552   0.418778655675   0.418671846319   
      0.418636123581   0.418671846319   0.418778655675   0.418955481552   0.419200561853   
      0.419511473931   0.419885177345   0.420318066699   0.42080603306   0.421344532224   
      0.421928657945   0.422553218129   0.423212811988   0.423901906214   0.424614908346   
      0.425346235711   0.426090378581   0.426841956458   0.427595766743   0.428346825347   
      0.429090399131   0.429822030329   0.430537553362   0.431233104672   0.431905126312   
      0.432550364153   0.433165861628   0.433748949893   0.434297235303   0.434808585018   
      0.435281111463   0.435713156314   0.436103274555   0.436450219059   0.436752926094   
      0.437010502031   0.437222211487   0.437387467083   0.437505820925   0.437576957914   
      0.413185820765   0.413156691065   0.413069383908   0.412924146282   0.412721393704   
      0.412461715975   0.412145885164   0.411774865705   0.41134982648   0.410872154694   
      0.410343471293   0.409765647588   0.40914082268   0.408471421168   0.407760170541   
      0.407010117522   0.406224642561   0.405407471568   0.40456268392   0.403694715729   
      0.402808357361   0.40190874426   0.401001340207   0.40009191233   0.399186497373   
      0.398291359015   0.397412936328   0.396557783792   0.395732503637   0.394943671599   
      0.394197757499   0.39350104228   0.392859533359   0.392278880251   0.391764292486   
      0.391320461787   0.39095149042   0.390660827422   0.390451214256   0.390324641172   
      0.390282315293   0.390324641172   0.390451214256   0.390660827422   0.39095149042   
      0.391320461787   0.391764292486   0.392278880251   0.392859533359   0.39350104228   
      0.394197757499   0.394943671599   0.395732503637   0.396557783792   0.397412936328   
      0.398291359015   0.399186497373   0.40009191233   0.401001340207   0.40190874426   
      0.402808357361   0.403694715729   0.40456268392   0.405407471568   0.406224642561   
      0.407010117522   0.407760170541   0.408471421168   0.40914082268   0.409765647588   
      0.410343471293   0.410872154694   0.41134982648   0.411774865705   0.412145885164   
      0.412461715975   0.412721393704   0.412924146282   0.413069383908   0.413156691065   
      0.394029392183   0.393996173492   0.393896618104   0.393731029356   0.393499917063   
      0.393204003852   0.392844233878   0.392421783824   0.391938075957   0.391394792998   
      0.390793894459   0.390137634031   0.38942857748   0.388669620432   0.387864005303   
      0.387015336519   0.386127593103   0.385205137596   0.384252720268   0.383275477568   
      0.382278923785   0.381268935036   0.38025172484   0.379233810748   0.378221971813   
      0.37722319696   0.376244624701   0.375293474948   0.37437697404   0.373502274392   
      0.372676370398   0.371906012403   0.371197620649   0.3705572011   0.369990264998   
      0.369501753865   0.36909597149   0.368776524237   0.368546270767   0.368407282077   
      0.36836081249   0.368407282077   0.368546270767   0.368776524237   0.36909597149   
      0.369501753865   0.369990264998   0.3705572011   0.371197620649   0.371906012403   
      0.372676370398   0.373502274392   0.37437697404   0.375293474948   0.376244624701   
      0.37722319696   0.378221971813   0.379233810748   0.38025172484   0.381268935036   
      0.382278923785   0.383275477568   0.384252720268   0.385205137596   0.386127593103   
      0.387015336519   0.387864005303   0.388669620432   0.38942857748   0.390137634031   
      0.390793894459   0.391394792998   0.391938075957   0.392421783824   0.392844233878   
      0.393204003852   0.393499917063   0.393731029356   0.393896618104   0.393996173492   
      0.379036085533   0.379000071258   0.378892144827   0.37871265676   0.378462195725   
      0.378141595142   0.377751942277   0.377294589622   0.376771168327   0.376183603353   
      0.375534129921   0.374825310752   0.374060053468   0.373241627413   0.372373679049   
      0.371460244996   0.370505761666   0.36951507044   0.368493417288   0.367446445805   
      0.366380182703   0.365301014996   0.364215658314   0.363131116067   0.362054629523   
      0.360993619197   0.359955618309   0.358948199429   0.357978895698   0.357055118278   
      0.356184071808   0.35537266974   0.354627451384   0.353954502393   0.353359380254   
      0.352847046111   0.352421804035   0.352087248573   0.351846221213   0.351700776194   
      0.351652155926   0.351700776194   0.351846221213   0.352087248573   0.352421804035   
      0.352847046111   0.353359380254   0.353954502393   0.354627451384   0.35537266974   
      0.356184071808   0.357055118278   0.357978895698   0.358948199429   0.359955618309   
      0.360993619197   0.362054629523   0.363131116067   0.364215658314   0.365301014996   
      0.366380182703   0.367446445805   0.368493417288   0.36951507044   0.370505761666   
      0.371460244996   0.372373679049   0.373241627413   0.374060053468   0.374825310752   
      0.375534129921   0.376183603353   0.376771168327   0.377294589622   0.377751942277   
      0.378141595142   0.378462195725   0.37871265676   0.378892144827   0.379000071258   
      0.368233030298   0.3681952952   0.368082218118   0.36789418506   0.367631843925   
      0.367296111228   0.366888181313   0.366409537836   0.365861967215   0.365247573678   
      0.364568795402   0.363828421178   0.363029606875   0.362175890901   0.361271207728   
      0.360319898478   0.359326717485   0.358296833746   0.357235826174   0.356149671673   
      0.355044725177   0.35392769103   0.352805585338   0.35168568926   0.350575493565   
      0.349482635137   0.348414826492   0.347379779668   0.346385126113   0.345438334364   
      0.344546627371   0.343716901309   0.342955647583   0.342268879526   0.341662065064   
      0.34114006629   0.340707086635   0.340366626059   0.340121444452   0.339973533284   
      0.33992409546   0.339973533284   0.340121444452   0.340366626059   0.340707086635   
      0.34114006629   0.341662065064   0.342268879526   0.342955647583   0.343716901309   
      0.344546627371   0.345438334364   0.346385126113   0.347379779668   0.348414826492   
      0.349482635137   0.350575493565   0.35168568926   0.352805585338   0.35392769103   
      0.355044725177   0.356149671673   0.357235826174   0.358296833746   0.359326717485   
      0.360319898478   0.361271207728   0.362175890901   0.363029606875   0.363828421178   
      0.364568795402   0.365247573678   0.365861967215   0.366409537836   0.366888181313   
      0.367296111228   0.367631843925   0.36789418506   0.368082218118   0.3681952952   
      0.361310815408   0.3612721234   0.361156183431   0.36096340504   0.360694475375   
      0.360350365946   0.359932341855   0.359441973245   0.358881148651   0.358252089808   
      0.357557367407   0.356799917132   0.355983055234   0.355110492763   0.354186347489   
      0.353215152455   0.352201860069   0.351151840628   0.350070874224   0.348965135091   
      0.347841167645   0.34670585369   0.345566370613   0.344430140691   0.343304772057   
      0.342197992219   0.341117575388   0.340071265163   0.339066694329   0.338111303647   
      0.3372122615   0.336376386201   0.335610072515   0.334919223745   0.334309190367   
      0.3337847159   0.333349890385   0.333008111564   0.332762053665   0.332613643548   
      0.332564043951   0.332613643548   0.332762053665   0.333008111564   0.333349890385   
      0.3337847159   0.334309190367   0.334919223745   0.335610072515   0.336376386201   
      0.3372122615   0.338111303647   0.339066694329   0.340071265163   0.341117575388   
      0.342197992219   0.343304772057   0.344430140691   0.345566370613   0.34670585369   
      0.347841167645   0.348965135091   0.350070874224   0.351151840628   0.352201860069   
      0.353215152455   0.354186347489   0.355110492763   0.355983055234   0.356799917132   
      0.357557367407   0.358252089808   0.358881148651   0.359441973245   0.359932341855   
      0.360350365946   0.360694475375   0.36096340504   0.361156183431   0.3612721234   
      0.357949865164   0.357910752656   0.357793555091   0.357598693733   0.357326875272   
      0.356979098584   0.356556663941   0.356061184421   0.355494599161   0.354859188009   
      0.354157587015   0.35339280409   0.352568234046   0.35168767211   0.350755324937   
      0.349775818019   0.348754198414   0.347695931672   0.346606891934   0.345493344298   
      0.344361918747   0.343219575201   0.342073559577   0.34093135111   0.339800601568   
      0.338689067378   0.337604536012   0.336554748279   0.335547318336   0.334589653322   
      0.333688874508   0.332851741682   0.332084582301   0.331393226607   0.330782949589   
      0.330258420304   0.329823658786   0.329482000451   0.329236067771   0.329087748823   
      0.329038182325   0.329087748823   0.329236067771   0.329482000451   0.329823658786   
      0.330258420304   0.330782949589   0.331393226607   0.332084582301   0.332851741682   
      0.333688874508   0.334589653322   0.335547318336   0.336554748279   0.337604536012   
      0.338689067378   0.339800601568   0.34093135111   0.342073559577   0.343219575201   
      0.344361918747   0.345493344298   0.346606891934   0.347695931672   0.348754198414   
      0.349775818019   0.350755324937   0.35168767211   0.352568234046   0.35339280409   
      0.354157587015   0.354859188009   0.355494599161   0.356061184421   0.356556663941   
      0.356979098584   0.357326875272   0.357598693733   0.357793555091   0.357910752656   
      0.357949865164   0.357910752656   0.357793555091   0.357598693733   0.357326875272   
      0.356979098584   0.356556663941   0.356061184421   0.355494599161   0.354859188009   
      0.354157587015   0.35339280409   0.352568234046   0.35168767211   0.350755324937   
      0.349775818019   0.348754198414   0.347695931672   0.346606891934   0.345493344298   
      0.344361918747   0.343219575201   0.342073559577   0.34093135111   0.339800601568   
      0.338689067378   0.337604536012   0.336554748279   0.335547318336   0.334589653322   
      0.333688874508   0.332851741682   0.332084582301   0.331393226607   0.330782949589   
      0.330258420304   0.329823658786   0.329482000451   0.329236067771   0.329087748823   
      0.329038182325   0.329087748823   0.329236067771   0.329482000451   0.329823658786   
      0.330258420304   0.330782949589   0.331393226607   0.332084582301   0.332851741682   
      0.333688874508   0.334589653322   0.335547318336   0.336554748279   0.337604536012   
      0.338689067378   0.339800601568   0.34093135111   0.342073559577   0.343219575201   
      0.344361918747   0.345493344298   0.346606891934   0.347695931672   0.348754198414   
      0.349775818019   0.350755324937   0.35168767211   0.352568234046   0.35339280409   
      0.354157587015   0.354859188009   0.355494599161   0.356061184421   0.356556663941   
      0.356979098584   0.357326875272   0.357598693733   0.357793555091   0.357910752656   
      0.361310815408   0.3612721234   0.361156183431   0.36096340504   0.360694475375   
      0.360350365946   0.359932341855   0.359441973245   0.358881148651   0.358252089808   
      0.357557367407   0.356799917132   0.355983055234   0.355110492763   0.354186347489   
      0.353215152455   0.352201860069   0.351151840628   0.350070874224   0.348965135091   
      0.347841167645   0.34670585369   0.345566370613   0.344430140691   0.343304772057   
      0.342197992219   0.341117575388   0.340071265163   0.339066694329   0.338111303647   
      0.3372122615   0.336376386201   0.335610072515   0.334919223745   0.334309190367   
      0.3337847159   0.333349890385   0.333008111564   0.332762053665   0.332613643548   
      0.332564043951   0.332613643548   0.332762053665   0.333008111564   0.333349890385   
      0.3337847159   0.334309190367   0.334919223745   0.335610072515   0.336376386201   
      0.3372122615   0.338111303647   0.339066694329   0.340071265163   0.341117575388   
      0.342197992219   0.343304772057   0.344430140691   0.345566370613   0.34670585369   
      0.347841167645   0.348965135091   0.350070874224   0.351151840628   0.352201860069   
      0.353215152455   0.354186347489   0.355110492763   0.355983055234   0.356799917132   
      0.357557367407   0.358252089808   0.358881148651   0.359441973245   0.359932341855   
      0.360350365946   0.360694475375   0.36096340504   0.361156183431   0.3612721234   
      0.368233030298   0.3681952952   0.368082218118   0.36789418506   0.367631843925   
      0.367296111228   0.366888181313   0.366409537836   0.365861967215   0.365247573678   
      0.364568795402   0.363828421178   0.363029606875   0.362175890901   0.361271207728   
      0.360319898478   0.359326717485   0.358296833746   0.357235826174   0.356149671673   
      0.355044725177   0.35392769103   0.352805585338   0.35168568926   0.350575493565   
      0.349482635137   0.348414826492   0.347379779668   0.346385126113   0.345438334364   
      0.344546627371   0.343716901309   0.342955647583   0.342268879526   0.341662065064   
      0.34114006629   0.340707086635   0.340366626059   0.340121444452   0.339973533284   
      0.33992409546   0.339973533284   0.340121444452   0.340366626059   0.340707086635   
      0.34114006629   0.341662065064   0.342268879526   0.342955647583   0.343716901309   
      0.344546627371   0.345438334364   0.346385126113   0.347379779668   0.348414826492   
      0.349482635137   0.350575493565   0.35168568926   0.352805585338   0.35392769103   
      0.355044725177   0.356149671673   0.357235826174   0.358296833746   0.359326717485   
      0.360319898478   0.361271207728   0.362175890901   0.363029606875   0.363828421178   
      0.364568795402   0.365247573678   0.365861967215   0.366409537836   0.366888181313   
      0.367296111228   0.367631843925   0.36789418506   0.368082218118   0.3681952952   
      0.379036085533   0.379000071258   0.378892144827   0.37871265676   0.378462195725   
      0.378141595142   0.377751942277   0.377294589622   0.376771168327   0.376183603353   
      0.375534129921   0.374825310752   0.374060053468   0.373241627413   0.372373679049   
      0.371460244996   0.370505761666   0.36951507044   0.368493417288   0.367446445805   
      0.366380182703   0.365301014996   0.364215658314   0.363131116067   0.362054629523   
      0.360993619197   0.359955618309   0.358948199429   0.357978895698   0.357055118278   
      0.356184071808   0.35537266974   0.354627451384   0.353954502393   0.353359380254   
      0.352847046111   0.352421804035   0.352087248573   0.351846221213   0.351700776194   
      0.351652155926   0.351700776194   0.351846221213   0.352087248573   0.352421804035   
      0.352847046111   0.353359380254   0.353954502393   0.354627451384   0.35537266974   
      0.356184071808   0.357055118278   0.357978895698   0.358948199429   0.359955618309   
      0.360993619197   0.362054629523   0.363131116067   0.364215658314   0.365301014996   
      0.366380182703   0.367446445805   0.368493417288   0.36951507044   0.370505761666   
      0.371460244996   0.372373679049   0.373241627413   0.374060053468   0.374825310752   
      0.375534129921   0.376183603353   0.376771168327   0.377294589622   0.377751942277   
      0.378141595142   0.378462195725   0.37871265676   0.378892144827   0.379000071258   
      0.394029392183   0.393996173492   0.393896618104   0.393731029356   0.393499917063   
      0.393204003852   0.392844233878   0.392421783824   0.391938075957   0.391394792998   
      0.390793894459   0.390137634031   0.38942857748   0.388669620432   0.387864005303   
      0.387015336519   0.386127593103   0.385205137596   0.384252720268   0.383275477568   
      0.382278923785   0.381268935036   0.38025172484   0.379233810748   0.378221971813   
      0.37722319696   0.376244624701   0.375293474948   0.37437697404   0.373502274392   
      0.372676370398   0.371906012403   0.371197620649   0.3705572011   0.369990264998   
      0.369501753865   0.36909597149   0.368776524237   0.368546270767   0.368407282077   
      0.36836081249   0.368407282077   0.368546270767   0.368776524237   0.36909597149   
      0.369501753865   0.369990264998   0.3705572011   0.371197620649   0.371906012403   
      0.372676370398   0.373502274392   0.37437697404   0.375293474948   0.376244624701   
      0.37722319696   0.378221971813   0.379233810748   0.38025172484   0.381268935036   
      0.382278923785   0.383275477568   0.384252720268   0.385205137596   0.386127593103   
      0.387015336519   0.387864005303   0.388669620432   0.38942857748   0.390137634031   
      0.390793894459   0.391394792998   0.391938075957   0.392421783824   0.392844233878   
      0.393204003852   0.393499917063   0.393731029356   0.393896618104   0.393996173492   
      0.413185820765   0.413156691065   0.413069383908   0.412924146282   0.412721393704   