<?xml version="1.0"?>
<VTKFile type="ImageData" version="0.1" byte_order="LittleEndian">
  <ImageData WholeExtent="0 79 0 19 0 19" Origin="0 0 0" Spacing="1 1 1">
  <Piece Extent="0 79 0 19 0 19">
    <PointData Scalars="density">
       <DataArray type="Float32" Name="bluedensity" NumberOfComponents="1" format="ascii">
      0   0   0   0   0   
      0   0   0   0   0   
      0   0   0   0   0   
      0   0   0   0   0   
      0   0   0   0   0   
      0   0   0   0   0   
      0   0   0   0   0   
      0   0   0   0   0   
      0   0   0   0   0   
      0   0   0   0   0   
      0   0   0   0   0   
      0   0   0   0   0   
      0   0   0   0   0   
      0   0   0   0   0   
      0   0   0   0   0   
      0   0   0   0   0   
      0   0   0   0   0   
      0   0   0   0   0   
      0   0   0   0   0   
      0   0   0   0   0   
      0   0   0   0   0   
      0   0   0   0   0   
      0   0   0   0   0   
      0   0   0   0   0   
      0   0   0   0   0   
      0   0   0   0   0   
      0   0   0   0   0   
      0   0   0   0   0   
      0   0   0   0   0   
      0   0   0   0   0   
      0   0   0   0   0   
      0   0   0   0   0   
      0   0   0   0   0   
      0   0   0   0   0   
      0   0   0   0   0   
      0   0   0   0   0   
      0   0   0   0   0   
      0   0   0   0   0   
      0   0   0   0   0   
      0   0   0   0   0   
      0   0   0   0   0   
      0   0   0   0   0   
      0   0   0   0   0   
      0   0   0   0   0   
      0   0   0   0   0   
      0   0   0   0   0   
      0   0   0   0   0   
      0   0   0   0   0   
      0   0   0   0   0   
      0   0   0   0   0   
      0   0   0   0   0   
      0   0   0   0   0   
      0   0   0   0   0   
      0   0   0   0   0   
      0   0   0   0   0   
      0   0   0   0   0   
      0   0   0   0   0   
      0   0   0   0   0   
      0   0   0   0   0   
      0   0   0   0   0   
      0   0   0   0   0   
      0   0   0   0   0   
      0   0   0   0   0   
      0   0   0   0   0   
      0   0   0   0   0   
      0   0   0   0   0   
      0   0   0   0   0   
      0   0   0   0   0   
      0   0   0   0   0   
      0   0   0   0   0   
      0   0   0   0   0   
      0   0   0   0   0   
      0   0   0   0   0   
      0   0   0   0   0   
      0   0   0   0   0   
      0   0   0   0   0   
      0   0   0   0   0   
      0   0   0   0   0   
      0   0   0   0   0   
      0   0   0   0   0   
      0   0   0   0   0   
      0   0   0   0   0   
      0   0   0   0   0   
      0   0   0   0   0   
      0   0   0   0   0   
      0   0   0   0   0   
      0   0   0   0   0   
      0   0   0   0   0   
      0   0   0   0   0   
      0   0   0   0   0   
      0   0   0   0   0   
      0   0   0   0   0   
      0   0   0   0   0   
      0   0   0   0   0   
      0   0   0   0   0   
      0   0   0   0   0   
      0   0   0   0   0   
      0   0   0   0   0   
      0   0   0   0   0   
      0   0   0   0   0   
      0   0   0   0   0   
      0   0   0   0   0   
      0   0   0   0   0   
      0   0   0   0   0   
      0   0   0   0   0   
      0   0   0   0   0   
      0   0   0   0   0   
      0   0   0   0   0   
      0   0   0   0   0   
      0   0   0   0   0   
      0   0   0   0   0   
      0   0   0   0   0   
      0   0   0   0   0   
      0   0   0   0   0   
      0   0   0   0   0   
      0   0   0   0   0   
      0   0   0   0   0   
      0   0   0   0   0   
      0   0   0   0   0   
      0   0   0   0   0   
      0   0   0   0   0   
      0   0   0   0   0   
      0   0   0   0   0   
      0   0   0   0   0   
      0   0   0   0   0   
      0   0   0   0   0   
      0   0   0   0   0   
      0   0   0   0   0   
      0   0   0   0   0   
      0   0   0   0   0   
      0   0   0   0   0   
      0   0   0   0   0   
      0   0   0   0   0   
      0   0   0   0   0   
      0   0   0   0   0   
      0   0   0   0   0   
      0   0   0   0   0   
      0   0   0   0   0   
      0   0   0   0   0   
      0   0   0   0   0   
      0   0   0   0   0   
      0   0   0   0   0   
      0   0   0   0   0   
      0   0   0   0   0   
      0   0   0   0   0   
      0   0   0   0   0   
      0   0   0   0   0   
      0   0   0   0   0   
      0   0   0   0   0   
      0   0   0   0   0   
      0   0   0   0   0   
      0   0   0   0   0   
      0   0   0   0   0   
      0   0   0   0   0   
      0   0   0   0   0   
      0   0   0   0   0   
      0   0   0   0   0   
      0   0   0   0   0   
      0   0   0   0   0   
      0   0   0   0   0   
      0   0   0   0   0   
      0   0   0   0   0   
      0   0   0   0   0   
      0   0   0   0   0   
      0   0   0   0   0   
      0   0   0   0   0   
      0   0   0   0   0   
      0   0   0   0   0   
      0   0   0   0   0   
      0   0   0   0   0   
      0   0   0   0   0   
      0   0   0   0   0   
      0   0   0   0   0   
      0   0   0   0   0   
      0   0   0   0   0   
      0   0   0   0   0   
      0   0   0   0   0   
      0   0   0   0   0   
      0   0   0   0   0   
      0   0   0   0   0   
      0   0   0   0   0   
      0   0   0   0   0   
      0   0   0   0   0   
      0   0   0   0   0   
      0   0   0   0   0   
      0   0   0   0   0   
      0   0   0   0   0   
      0   0   0   0   0   
      0   0   0   0   0   
      0   0   0   0   0   
      0   0   0   0   0   
      0   0   0   0   0   
      0   0   0   0   0   
      0   0   0   0   0   
      0   0   0   0   0   
      0   0   0   0   0   
      0   0   0   0   0   
      0   0   0   0   0   
      0   0   0   0   0   
      0   0   0   0   0   
      0   0   0   0   0   
      0   0   0   0   0   
      0   0   0   0   0   
      0   0   0   0   0   
      0   0   0   0   0   
      0   0   0   0   0   
      0   0   0   0   0   
      0   0   0   0   0   
      0   0   0   0   0   
      0   0   0   0   0   
      0   0   0   0   0   
      0   0   0   0   0   
      0   0   0   0   0   
      0   0   0   0   0   
      0   0   0   0   0   
      0   0   0   0   0   
      0   0   0   0   0   
      0   0   0   0   0   
      0   0   0   0   0   
      0   0   0   0   0   
      0   0   0   0   0   
      0   0   0   0   0   
      0   0   0   0   0   
      0   0   0   0   0   
      0   0   0   0   0   
      0   0   0   0   0   
      0   0   0   0   0   
      0   0   0   0   0   
      0   0   0   0   0   
      0   0   0   0   0   
      0   0   0   0   0   
      0   0   0   0   0   
      0   0   0   0   0   
      0   0   0   0   0   
      0   0   0   0   0   
      0   0   0   0   0   
      0   0   0   0   0   
      0   0   0   0   0   
      0   0   0   0   0   
      0   0   0   0   0   
      0   0   0   0   0   
      0   0   0   0   0   
      0   0   0   0   0   
      0   0   0   0   0   
      0   0   0   0   0   
      0   0   0   0   0   
      0   0   0   0   0   
      0   0   0   0   0   
      0   0   0   0   0   
      0   0   0   0   0   
      0   0   0   0   0   
      0   0   0   0   0   
      0   0   0   0   0   
      0   0   0   0   0   
      0   0   0   0   0   
      0   0   0   0   0   
      0   0   0   0   0   
      0   0   0   0   0   
      0   0   0   0   0   
      0   0   0   0   0   
      0   0   0   0   0   
      0   0   0   0   0   
      0   0   0   0   0   
      0   0   0   0   0   
      0   0   0   0   0   
      0   0   0   0   0   
      0   0   0   0   0   
      0   0   0   0   0   
      0   0   0   0   0   
      0   0   0   0   0   
      0   0   0   0   0   
      0   0   0   0   0   
      0   0   0   0   0   
      0   0   0   0   0   
      0   0   0   0   0   
      0   0   0   0   0   
      0   0   0   0   0   
      0   0   0   0   0   
      0   0   0   0   0   
      0   0   0   0   0   
      0   0   0   0   0   
      0   0   0   0   0   
      0   0   0   0   0   
      0   0   0   0   0   
      0   0   0   0   0   
      0   0   0   0   0   
      0   0   0   0   0   
      0   0   0   0   0   
      0   0   0   0   0   
      0   0   0   0   0   
      0   0   0   0   0   
      0   0   0   0   0   
      0   0   0   0   0   
      0   0   0   0   0   
      0   0   0   0   0   
      0   0   0   0   0   
      0   0   0   0   0   
      0   0   0   0   0   
      0   0   0   0   0   
      0   0   0   0   0   
      0   0   0   0   0   
      0   0   0   0   0   
      0   0   0   0   0   
      0   0   0   0   0   
      0   0   0   0   0   
      0   0   0   0   0   
      0   0   0   0   0   
      0   0   0   0   0   
      0   0   0   0   0   
      0   0   0   0   0   
      0   0   0   0   0   
      0   0   0   0   0   
      0   0   0   0   0   
      0   0   0   0   0   
      0   0   0   0   0   
      0   0   0   0   0   
      0   0   0   0   0   
      0   0   0   0   0   
      0   0   0   0   0   
      0   0   0   0   0   
      0   0   0   0   0   
      0   0   0   0   0   
      0   0   0   0   0   
      0   0   0   0   0   
      0   0   0   0   0   
      0   0   0   0   0   
      0   0   0   0   0   
      0   0   0   0   0   
      0   0   0   0   0   
      0   0   0   0   0   
      0   0   0   0   0   
      0   0   0   0   0   
      0   0   0   0   0   
      0   0   0   0   0   
      0   0   0   0   0   
      0   0   0   0   0   
      0.574811296515   0.574795740291   0.574749100864   0.574671466631   0.574562987154   
      0.574423876508   0.574254418016   0.574054970371   0.573825975176   0.573567965914   
      0.573281578327   0.572967562185   0.572626794339   0.572260292946   0.571869232628   
      0.571454960293   0.571019011196   0.57056312476   0.570089259503   0.569599606362   
      0.569096599544   0.568582923998   0.568061518508   0.567535573416   0.567008522039   
      0.566484024904   0.565965946153   0.565458321661   0.564965318739   0.564491187634   
      0.564040205429   0.563616613354   0.563224548892   0.56286797445   0.562550604634   
      0.562275834385   0.562046670368   0.561865667978   0.561734876225   0.561655792533   
      0.561629329165   0.561655792533   0.561734876225   0.561865667978   0.562046670368   
      0.562275834385   0.562550604634   0.56286797445   0.563224548892   0.563616613354   
      0.564040205429   0.564491187634   0.564965318739   0.565458321661   0.565965946153   
      0.566484024904   0.567008522039   0.567535573416   0.568061518508   0.568582923998   
      0.569096599544   0.569599606362   0.570089259503   0.57056312476   0.571019011196   
      0.571454960293   0.571869232628   0.572260292946   0.572626794339   0.572967562185   
      0.573281578327   0.573567965914   0.573825975176   0.574054970371   0.574254418016   
      0.574423876508   0.574562987154   0.574671466631   0.574749100864   0.574795740291   
      0.463614068643   0.463592513813   0.463527888424   0.463420310769   0.463269981348   
      0.463077187893   0.462842312444   0.462565840489   0.462248372185   0.461890635655   
      0.461493502324   0.461058004204   0.460585352976   0.460076960625   0.45953446128   
      0.458959733776   0.45835492433   0.457722468549   0.457065111844   0.456385927174   
      0.455688328921   0.454976081591   0.454253302009   0.453524453702   0.452794332238   
      0.452068040523   0.451350953276   0.450648670314   0.449966958665   0.449311684038   
      0.448688732669   0.448103925083   0.447562923768   0.447071137186   0.446633622829   
      0.446254992265   0.445939321172   0.445690067291   0.445509999065   0.445401137387   
      0.445364712477   0.445401137387   0.445509999065   0.445690067291   0.445939321172   
      0.446254992265   0.446633622829   0.447071137186   0.447562923768   0.448103925083   
      0.448688732669   0.449311684038   0.449966958665   0.450648670314   0.451350953276   
      0.452068040523   0.452794332238   0.453524453702   0.454253302009   0.454976081591   
      0.455688328921   0.456385927174   0.457065111844   0.457722468549   0.45835492433   
      0.458959733776   0.45953446128   0.460076960625   0.460585352976   0.461058004204   
      0.461493502324   0.461890635655   0.462248372185   0.462565840489   0.462842312444   
      0.463077187893   0.463269981348   0.463420310769   0.463527888424   0.463592513813   
      0.43938240094   0.43935445102   0.439270655834   0.439131180435   0.438936304352   
      0.438686428251   0.438382083294   0.438023943172   0.437612838817   0.437149775734   
      0.436635953846   0.436072789687   0.435461940663   0.434805330986   0.434105178756   
      0.433364023474   0.432584753127   0.431770629774   0.430925312392   0.430052875603   
      0.429157822762   0.428245091831   0.427320052499   0.426388493067   0.425456595861   
      0.424530900199   0.423618252361   0.422725742476   0.421860628771   0.421030250226   
      0.420241929186   0.419502866059   0.418820028632   0.418200038915   0.417649060601   
      0.417172690377   0.416775856213   0.416462725648   0.416236626751   0.416099984106   
      0.416054271702   0.416099984106   0.416236626751   0.416462725648   0.416775856213   
      0.417172690377   0.417649060601   0.418200038915   0.418820028632   0.419502866059   
      0.420241929186   0.421030250226   0.421860628771   0.422725742476   0.423618252361   
      0.424530900199   0.425456595861   0.426388493067   0.427320052499   0.428245091831   
      0.429157822762   0.430052875603   0.430925312392   0.431770629774   0.432584753127   
      0.433364023474   0.434105178756   0.434805330986   0.435461940663   0.436072789687   
      0.436635953846   0.437149775734   0.437612838817   0.438023943172   0.438382083294   
      0.438686428251   0.438936304352   0.439131180435   0.439270655834   0.43935445102   
      0.415397855443   0.415363468391   0.415260381907   0.415088821639   0.414849169145   
      0.414541970095   0.41416794575   0.413728007668   0.413223275569   0.412655098251   
      0.412025077325   0.411335093498   0.410587334952   0.40978432723   0.408928963879   
      0.408024536876   0.407074765688   0.406083823587   0.405056359714   0.403997515203   
      0.402912931629   0.401808750073   0.400691599149   0.399568570623   0.39844718154   
      0.397335322217   0.396241190004   0.395173209289   0.394139938806   0.393149967952   
      0.392211804297   0.391333754935   0.390523804656   0.389789494049   0.389137800728   
      0.388575026739   0.388106695006   0.387737457359   0.387471016324   0.387310062479   
      0.387256228726   0.387310062479   0.387471016324   0.387737457359   0.388106695006   
      0.388575026739   0.389137800728   0.389789494049   0.390523804656   0.391333754935   
      0.392211804297   0.393149967952   0.394139938806   0.395173209289   0.396241190004   
      0.397335322217   0.39844718154   0.399568570623   0.400691599149   0.401808750073   
      0.402912931629   0.403997515203   0.405056359714   0.406083823587   0.407074765688   
      0.408024536876   0.408928963879   0.40978432723   0.410587334952   0.411335093498   
      0.412025077325   0.412655098251   0.413223275569   0.413728007668   0.41416794575   
      0.414541970095   0.414849169145   0.415088821639   0.415260381907   0.415363468391   
      0.396572583249   0.396533265152   0.396415405755   0.396219291611   0.395945406523   
      0.395594440846   0.39516730444   0.394665143199   0.39408935902   0.393441632978   
      0.392723951414   0.391938634471   0.391088366473   0.390176227373   0.38920572426   
      0.38818082174   0.38710596977   0.38598612735   0.384826780339   0.383633951552   
      0.382414201353   0.381174617004   0.379922789324   0.37866677552   0.377415047535   
      0.376176425819   0.374959999047   0.373775030942   0.372630855979   0.37153676629   
      0.370501892486   0.369535081385   0.368644773767   0.367838885163   0.367124692538   
      0.366508729364   0.365996691226   0.365593353656   0.36530250351   0.365126884809   
      0.365068159685   0.365126884809   0.36530250351   0.365593353656   0.365996691226   
      0.366508729364   0.367124692538   0.367838885163   0.368644773767   0.369535081385   
      0.370501892486   0.37153676629   0.372630855979   0.373775030942   0.374959999047   
      0.376176425819   0.377415047535   0.37866677552   0.379922789324   0.381174617004   
      0.382414201353   0.383633951552   0.384826780339   0.38598612735   0.38710596977   
      0.38818082174   0.38920572426   0.390176227373   0.391088366473   0.391938634471   
      0.392723951414   0.393441632978   0.39408935902   0.394665143199   0.39516730444   
      0.395594440846   0.395945406523   0.396219291611   0.396415405755   0.396533265152   
      0.38180957426   0.381766842645   0.381638760417   0.381425667451   0.381128136923   
      0.380746985335   0.380283286436   0.379738388905   0.379113937572   0.378411897885   
      0.377634583166   0.376784684076   0.37586529952   0.374879968006   0.373832698276   
      0.372727997797   0.371570897498   0.370366970999   0.369122346457   0.367843709154   
      0.366538293051   0.365213859759   0.363878663712   0.362541402843   0.361211154593   
      0.359897297796   0.358609421606   0.357357223314   0.356150397446   0.354998518967   
      0.353910923662   0.352896588835   0.351964017327   0.351121127576   0.350375151999   
      0.349732545478   0.349198905224   0.348778902791   0.348476228603   0.348293549061   
      0.348232476106   0.348293549061   0.348476228603   0.348778902791   0.349198905224   
      0.349732545478   0.350375151999   0.351121127576   0.351964017327   0.352896588835   
      0.353910923662   0.354998518967   0.356150397446   0.357357223314   0.358609421606   
      0.359897297796   0.361211154593   0.362541402843   0.363878663712   0.365213859759   
      0.366538293051   0.367843709154   0.369122346457   0.370366970999   0.371570897498   
      0.372727997797   0.373832698276   0.374879968006   0.37586529952   0.376784684076   
      0.377634583166   0.378411897885   0.379113937572   0.379738388905   0.380283286436   
      0.380746985335   0.381128136923   0.381425667451   0.381638760417   0.381766842645   
      0.371151068749   0.371106204704   0.37097173896   0.370748052813   0.370435788792   
      0.370035861148   0.369549470371   0.368978121543   0.368323646262   0.367588227722   
      0.36677442841   0.365885219716   0.364924012512   0.363894687607   0.362801624683   
      0.36164972818   0.360444448365   0.359191795704   0.357898346647   0.356571238933   
      0.355218154768   0.353847290528   0.35246731208   0.351087295442   0.349716653116   
      0.348365047184   0.347042290917   0.345758241293   0.344522685279   0.34334522305   
      0.342235151396   0.341201350438   0.340252176465   0.339395363172   0.338637933037   
      0.337986119913   0.337445303306   0.337019954319   0.336713592828   0.336528755251   
      0.336466972178   0.336528755251   0.336713592828   0.337019954319   0.337445303306   
      0.337986119913   0.338637933037   0.339395363172   0.340252176465   0.341201350438   
      0.342235151396   0.34334522305   0.344522685279   0.345758241293   0.347042290917   
      0.348365047184   0.349716653116   0.351087295442   0.35246731208   0.353847290528   
      0.355218154768   0.356571238933   0.357898346647   0.359191795704   0.360444448365   
      0.36164972818   0.362801624683   0.363894687607   0.364924012512   0.365885219716   
      0.36677442841   0.367588227722   0.368323646262   0.368978121543   0.369549470371   
      0.370035861148   0.370435788792   0.370748052813   0.37097173896   0.371106204704   
      0.364310797559   0.364264729333   0.364126660387   0.363897000094   0.363576437978   
      0.363165954465   0.362666835741   0.362080692475   0.361409482088   0.360655534079   
      0.359821577808   0.358910771911   0.357926734328   0.3568735717   0.35575590668   
      0.35457890147   0.353348275755   0.352070317116   0.350751881974   0.349400385264   
      0.348023777286   0.346630506562   0.345229468088   0.343829937   0.3424414884   
      0.34107390483   0.339737073554   0.338440876428   0.337195075487   0.336009197643   
      0.334892421789   0.333853471357   0.332900514926   0.332041076814   0.331281958928   
      0.330629174429   0.330087893106   0.329662397878   0.329356051438   0.329171271927   
      0.329109516508   0.329171271927   0.329356051438   0.329662397878   0.330087893106   
      0.330629174429   0.331281958928   0.332041076814   0.332900514926   0.333853471357   
      0.334892421789   0.336009197643   0.337195075487   0.338440876428   0.339737073554   
      0.34107390483   0.3424414884   0.343829937   0.345229468088   0.346630506562   
      0.348023777286   0.349400385264   0.350751881974   0.352070317116   0.353348275755   
      0.35457890147   0.35575590668   0.3568735717   0.357926734328   0.358910771911   
      0.359821577808   0.360655534079   0.361409482088   0.362080692475   0.362666835741   
      0.363165954465   0.363576437978   0.363897000094   0.364126660387   0.364264729333   
      0.360986403595   0.360939799515   0.360800127723   0.36056781177   0.360243564894   
      0.359828400903   0.35932364918   0.358730973571   0.358052394777   0.357290315765   
      0.356447549519   0.355527348266   0.35453343312   0.353470022814   0.352341860027   
      0.351154233556   0.34991299448   0.348624564348   0.347295933474   0.345934647562   
      0.344548781165   0.343146896947   0.341737990263   0.340331419267   0.338936821506   
      0.337564018686   0.336222912015   0.334923371036   0.333675119276   0.332487620137   
      0.331369966366   0.330330776085   0.329378097825   0.328519326331   0.32776113014   
      0.327109391215   0.326569156255   0.326144598775   0.325838990732   0.325654682328   
      0.325593088688   0.325654682328   0.325838990732   0.326144598775   0.326569156255   
      0.327109391215   0.32776113014   0.328519326331   0.329378097825   0.330330776085   
      0.331369966366   0.332487620137   0.333675119276   0.334923371036   0.336222912015   
      0.337564018686   0.338936821506   0.340331419267   0.341737990263   0.343146896947   
      0.344548781165   0.345934647562   0.347295933474   0.348624564348   0.34991299448   
      0.351154233556   0.352341860027   0.353470022814   0.35453343312   0.355527348266   
      0.356447549519   0.357290315765   0.358052394777   0.358730973571   0.35932364918   
      0.359828400903   0.360243564894   0.36056781177   0.360800127723   0.360939799515   
      0.360986403595   0.360939799515   0.360800127723   0.36056781177   0.360243564894   
      0.359828400903   0.35932364918   0.358730973571   0.358052394777   0.357290315765   
      0.356447549519   0.355527348266   0.35453343312   0.353470022814   0.352341860027   
      0.351154233556   0.34991299448   0.348624564348   0.347295933474   0.345934647562   
      0.344548781165   0.343146896947   0.341737990263   0.340331419267   0.338936821506   
      0.337564018686   0.336222912015   0.334923371036   0.333675119276   0.332487620137   
      0.331369966366   0.330330776085   0.329378097825   0.328519326331   0.32776113014   
      0.327109391215   0.326569156255   0.326144598775   0.325838990732   0.325654682328   
      0.325593088688   0.325654682328   0.325838990732   0.326144598775   0.326569156255   
      0.327109391215   0.32776113014   0.328519326331   0.329378097825   0.330330776085   
      0.331369966366   0.332487620137   0.333675119276   0.334923371036   0.336222912015   
      0.337564018686   0.338936821506   0.340331419267   0.341737990263   0.343146896947   
      0.344548781165   0.345934647562   0.347295933474   0.348624564348   0.34991299448   
      0.351154233556   0.352341860027   0.353470022814   0.35453343312   0.355527348266   
      0.356447549519   0.357290315765   0.358052394777   0.358730973571   0.35932364918   
      0.359828400903   0.360243564894   0.36056781177   0.360800127723   0.360939799515   
      0.364310797559   0.364264729333   0.364126660387   0.363897000094   0.363576437978   
      0.363165954465   0.362666835741   0.362080692475   0.361409482088   0.360655534079   
      0.359821577808   0.358910771911   0.357926734328   0.3568735717   0.35575590668   
      0.35457890147   0.353348275755   0.352070317116   0.350751881974   0.349400385264   
      0.348023777286   0.346630506562   0.345229468088   0.343829937   0.3424414884   
      0.34107390483   0.339737073554   0.338440876428   0.337195075487   0.336009197643   
      0.334892421789   0.333853471357   0.332900514926   0.332041076814   0.331281958928   
      0.330629174429   0.330087893106   0.329662397878   0.329356051438   0.329171271927   
      0.329109516508   0.329171271927   0.329356051438   0.329662397878   0.330087893106   
      0.330629174429   0.331281958928   0.332041076814   0.332900514926   0.333853471357   
      0.334892421789   0.336009197643   0.337195075487   0.338440876428   0.339737073554   
      0.34107390483   0.3424414884   0.343829937   0.345229468088   0.346630506562   
      0.348023777286   0.349400385264   0.350751881974   0.352070317116   0.353348275755   
      0.35457890147   0.35575590668   0.3568735717   0.357926734328   0.358910771911   
      0.359821577808   0.360655534079   0.361409482088   0.362080692475   0.362666835741   
      0.363165954465   0.363576437978   0.363897000094   0.364126660387   0.364264729333   
      0.371151068749   0.371106204704   0.37097173896   0.370748052813   0.370435788792   
      0.370035861148   0.369549470371   0.368978121543   0.368323646262   0.367588227722   
      0.36677442841   0.365885219716   0.364924012512   0.363894687607   0.362801624683   
      0.36164972818   0.360444448365   0.359191795704   0.357898346647   0.356571238933   
      0.355218154768   0.353847290528   0.35246731208   0.351087295442   0.349716653116   
      0.348365047184   0.347042290917   0.345758241293   0.344522685279   0.34334522305   
      0.342235151396   0.341201350438   0.340252176465   0.339395363172   0.338637933037   
      0.337986119913   0.337445303306   0.337019954319   0.336713592828   0.336528755251   
      0.336466972178   0.336528755251   0.336713592828   0.337019954319   0.337445303306   
      0.337986119913   0.338637933037   0.339395363172   0.340252176465   0.341201350438   
      0.342235151396   0.34334522305   0.344522685279   0.345758241293   0.347042290917   
      0.348365047184   0.349716653116   0.351087295442   0.35246731208   0.353847290528   
      0.355218154768   0.356571238933   0.357898346647   0.359191795704   0.360444448365   
      0.36164972818   0.362801624683   0.363894687607   0.364924012512   0.365885219716   
      0.36677442841   0.367588227722   0.368323646262   0.368978121543   0.369549470371   
      0.370035861148   0.370435788792   0.370748052813   0.37097173896   0.371106204704   
      0.38180957426   0.381766842645   0.381638760417   0.381425667451   0.381128136923   
      0.380746985335   0.380283286436   0.379738388905   0.379113937572   0.378411897885   
      0.377634583166   0.376784684076   0.37586529952   0.374879968006   0.373832698276   
      0.372727997797   0.371570897498   0.370366970999   0.369122346457   0.367843709154   
      0.366538293051   0.365213859759   0.363878663712   0.362541402843   0.361211154593   
      0.359897297796   0.358609421606   0.357357223314   0.356150397446   0.354998518967   
      0.353910923662   0.352896588835   0.351964017327   0.351121127576   0.350375151999   
      0.349732545478   0.349198905224   0.348778902791   0.348476228603   0.348293549061   
      0.348232476106   0.348293549061   0.348476228603   0.348778902791   0.349198905224   
      0.349732545478   0.350375151999   0.351121127576   0.351964017327   0.352896588835   
      0.353910923662   0.354998518967   0.356150397446   0.357357223314   0.358609421606   
      0.359897297796   0.361211154593   0.362541402843   0.363878663712   0.365213859759   
      0.366538293051   0.367843709154   0.369122346457   0.370366970999   0.371570897498   
      0.372727997797   0.373832698276   0.374879968006   0.37586529952   0.376784684076   
      0.377634583166   0.378411897885   0.379113937572   0.379738388905   0.380283286436   
      0.380746985335   0.381128136923   0.381425667451   0.381638760417   0.381766842645   
      0.396572583249   0.396533265152   0.396415405755   0.396219291611   0.395945406523   
      0.395594440846   0.39516730444   0.394665143199   0.39408935902   0.393441632978   
      0.392723951414   0.391938634471   0.391088366473   0.390176227373   0.38920572426   
      0.38818082174   0.38710596977   0.38598612735   0.384826780339   0.383633951552   
      0.382414201353   0.381174617004   0.379922789324   0.37866677552   0.377415047535   
      0.376176425819   0.374959999047   0.373775030942   0.372630855979   0.37153676629   
      0.370501892486   0.369535081385   0.368644773767   0.367838885163   0.367124692538   
      0.366508729364   0.365996691226   0.365593353656   0.36530250351   0.365126884809   
      0.365068159685   0.365126884809   0.36530250351   0.365593353656   0.365996691226   
      0.366508729364   0.367124692538   0.367838885163   0.368644773767   0.369535081385   
      0.370501892486   0.37153676629   0.372630855979   0.373775030942   0.374959999047   
      0.376176425819   0.377415047535   0.37866677552   0.379922789324   0.381174617004   
      0.382414201353   0.383633951552   0.384826780339   0.38598612735   0.38710596977   
      0.38818082174   0.38920572426   0.390176227373   0.391088366473   0.391938634471   
      0.392723951414   0.393441632978   0.39408935902   0.394665143199   0.39516730444   
      0.395594440846   0.395945406523   0.396219291611   0.396415405755   0.396533265152   
      0.415397855443   0.415363468391   0.415260381907   0.415088821639   0.414849169145   