<?xml version="1.0"?>
<VTKFile type="ImageData" version="0.1" byte_order="LittleEndian">
  <ImageData WholeExtent="0 79 0 19 0 19" Origin="0 0 0" Spacing="1 1 1">
  <Piece Extent="0 79 0 19 0 19">
    <PointData Scalars="density">
       <DataArray type="Float32" Name="bluedensity" NumberOfComponents="1" format="ascii">
      0   0   0   0   0   
      0   0   0   0   0   
      0   0   0   0   0   
      0   0   0   0   0   
      0   0   0   0   0   
      0   0   0   0   0   
      0   0   0   0   0   
      0   0   0   0   0   
      0   0   0   0   0   
      0   0   0   0   0   
      0   0   0   0   0   
      0   0   0   0   0   
      0   0   0   0   0   
      0   0   0   0   0   
      0   0   0   0   0   
      0   0   0   0   0   
      0   0   0   0   0   
      0   0   0   0   0   
      0   0   0   0   0   
      0   0   0   0   0   
      0   0   0   0   0   
      0   0   0   0   0   
      0   0   0   0   0   
      0   0   0   0   0   
      0   0   0   0   0   
      0   0   0   0   0   
      0   0   0   0   0   
      0   0   0   0   0   
      0   0   0   0   0   
      0   0   0   0   0   
      0   0   0   0   0   
      0   0   0   0   0   
      0   0   0   0   0   
      0   0   0   0   0   
      0   0   0   0   0   
      0   0   0   0   0   
      0   0   0   0   0   
      0   0   0   0   0   
      0   0   0   0   0   
      0   0   0   0   0   
      0   0   0   0   0   
      0   0   0   0   0   
      0   0   0   0   0   
      0   0   0   0   0   
      0   0   0   0   0   
      0   0   0   0   0   
      0   0   0   0   0   
      0   0   0   0   0   
      0   0   0   0   0   
      0   0   0   0   0   
      0   0   0   0   0   
      0   0   0   0   0   
      0   0   0   0   0   
      0   0   0   0   0   
      0   0   0   0   0   
      0   0   0   0   0   
      0   0   0   0   0   
      0   0   0   0   0   
      0   0   0   0   0   
      0   0   0   0   0   
      0   0   0   0   0   
      0   0   0   0   0   
      0   0   0   0   0   
      0   0   0   0   0   
      0   0   0   0   0   
      0   0   0   0   0   
      0   0   0   0   0   
      0   0   0   0   0   
      0   0   0   0   0   
      0   0   0   0   0   
      0   0   0   0   0   
      0   0   0   0   0   
      0   0   0   0   0   
      0   0   0   0   0   
      0   0   0   0   0   
      0   0   0   0   0   
      0   0   0   0   0   
      0   0   0   0   0   
      0   0   0   0   0   
      0   0   0   0   0   
      0   0   0   0   0   
      0   0   0   0   0   
      0   0   0   0   0   
      0   0   0   0   0   
      0   0   0   0   0   
      0   0   0   0   0   
      0   0   0   0   0   
      0   0   0   0   0   
      0   0   0   0   0   
      0   0   0   0   0   
      0   0   0   0   0   
      0   0   0   0   0   
      0   0   0   0   0   
      0   0   0   0   0   
      0   0   0   0   0   
      0   0   0   0   0   
      0   0   0   0   0   
      0   0   0   0   0   
      0   0   0   0   0   
      0   0   0   0   0   
      0   0   0   0   0   
      0   0   0   0   0   
      0   0   0   0   0   
      0   0   0   0   0   
      0   0   0   0   0   
      0   0   0   0   0   
      0   0   0   0   0   
      0   0   0   0   0   
      0   0   0   0   0   
      0   0   0   0   0   
      0   0   0   0   0   
      0   0   0   0   0   
      0   0   0   0   0   
      0   0   0   0   0   
      0   0   0   0   0   
      0   0   0   0   0   
      0   0   0   0   0   
      0   0   0   0   0   
      0   0   0   0   0   
      0   0   0   0   0   
      0   0   0   0   0   
      0   0   0   0   0   
      0   0   0   0   0   
      0   0   0   0   0   
      0   0   0   0   0   
      0   0   0   0   0   
      0   0   0   0   0   
      0   0   0   0   0   
      0   0   0   0   0   
      0   0   0   0   0   
      0   0   0   0   0   
      0   0   0   0   0   
      0   0   0   0   0   
      0   0   0   0   0   
      0   0   0   0   0   
      0   0   0   0   0   
      0   0   0   0   0   
      0   0   0   0   0   
      0   0   0   0   0   
      0   0   0   0   0   
      0   0   0   0   0   
      0   0   0   0   0   
      0   0   0   0   0   
      0   0   0   0   0   
      0   0   0   0   0   
      0   0   0   0   0   
      0   0   0   0   0   
      0   0   0   0   0   
      0   0   0   0   0   
      0   0   0   0   0   
      0   0   0   0   0   
      0   0   0   0   0   
      0   0   0   0   0   
      0   0   0   0   0   
      0   0   0   0   0   
      0   0   0   0   0   
      0   0   0   0   0   
      0   0   0   0   0   
      0   0   0   0   0   
      0   0   0   0   0   
      0   0   0   0   0   
      0   0   0   0   0   
      0   0   0   0   0   
      0   0   0   0   0   
      0   0   0   0   0   
      0   0   0   0   0   
      0   0   0   0   0   
      0   0   0   0   0   
      0   0   0   0   0   
      0   0   0   0   0   
      0   0   0   0   0   
      0   0   0   0   0   
      0   0   0   0   0   
      0   0   0   0   0   
      0   0   0   0   0   
      0   0   0   0   0   
      0   0   0   0   0   
      0   0   0   0   0   
      0   0   0   0   0   
      0   0   0   0   0   
      0   0   0   0   0   
      0   0   0   0   0   
      0   0   0   0   0   
      0   0   0   0   0   
      0   0   0   0   0   
      0   0   0   0   0   
      0   0   0   0   0   
      0   0   0   0   0   
      0   0   0   0   0   
      0   0   0   0   0   
      0   0   0   0   0   
      0   0   0   0   0   
      0   0   0   0   0   
      0   0   0   0   0   
      0   0   0   0   0   
      0   0   0   0   0   
      0   0   0   0   0   
      0   0   0   0   0   
      0   0   0   0   0   
      0   0   0   0   0   
      0   0   0   0   0   
      0   0   0   0   0   
      0   0   0   0   0   
      0   0   0   0   0   
      0   0   0   0   0   
      0   0   0   0   0   
      0   0   0   0   0   
      0   0   0   0   0   
      0   0   0   0   0   
      0   0   0   0   0   
      0   0   0   0   0   
      0   0   0   0   0   
      0   0   0   0   0   
      0   0   0   0   0   
      0   0   0   0   0   
      0   0   0   0   0   
      0   0   0   0   0   
      0   0   0   0   0   
      0   0   0   0   0   
      0   0   0   0   0   
      0   0   0   0   0   
      0   0   0   0   0   
      0   0   0   0   0   
      0   0   0   0   0   
      0   0   0   0   0   
      0   0   0   0   0   
      0   0   0   0   0   
      0   0   0   0   0   
      0   0   0   0   0   
      0   0   0   0   0   
      0   0   0   0   0   
      0   0   0   0   0   
      0   0   0   0   0   
      0   0   0   0   0   
      0   0   0   0   0   
      0   0   0   0   0   
      0   0   0   0   0   
      0   0   0   0   0   
      0   0   0   0   0   
      0   0   0   0   0   
      0   0   0   0   0   
      0   0   0   0   0   
      0   0   0   0   0   
      0   0   0   0   0   
      0   0   0   0   0   
      0   0   0   0   0   
      0   0   0   0   0   
      0   0   0   0   0   
      0   0   0   0   0   
      0   0   0   0   0   
      0   0   0   0   0   
      0   0   0   0   0   
      0   0   0   0   0   
      0   0   0   0   0   
      0   0   0   0   0   
      0   0   0   0   0   
      0   0   0   0   0   
      0   0   0   0   0   
      0   0   0   0   0   
      0   0   0   0   0   
      0   0   0   0   0   
      0   0   0   0   0   
      0   0   0   0   0   
      0   0   0   0   0   
      0   0   0   0   0   
      0   0   0   0   0   
      0   0   0   0   0   
      0   0   0   0   0   
      0   0   0   0   0   
      0   0   0   0   0   
      0   0   0   0   0   
      0   0   0   0   0   
      0   0   0   0   0   
      0   0   0   0   0   
      0   0   0   0   0   
      0   0   0   0   0   
      0   0   0   0   0   
      0   0   0   0   0   
      0   0   0   0   0   
      0   0   0   0   0   
      0   0   0   0   0   
      0   0   0   0   0   
      0   0   0   0   0   
      0   0   0   0   0   
      0   0   0   0   0   
      0   0   0   0   0   
      0   0   0   0   0   
      0   0   0   0   0   
      0   0   0   0   0   
      0   0   0   0   0   
      0   0   0   0   0   
      0   0   0   0   0   
      0   0   0   0   0   
      0   0   0   0   0   
      0   0   0   0   0   
      0   0   0   0   0   
      0   0   0   0   0   
      0   0   0   0   0   
      0   0   0   0   0   
      0   0   0   0   0   
      0   0   0   0   0   
      0   0   0   0   0   
      0   0   0   0   0   
      0   0   0   0   0   
      0   0   0   0   0   
      0   0   0   0   0   
      0   0   0   0   0   
      0   0   0   0   0   
      0   0   0   0   0   
      0   0   0   0   0   
      0   0   0   0   0   
      0   0   0   0   0   
      0   0   0   0   0   
      0   0   0   0   0   
      0   0   0   0   0   
      0   0   0   0   0   
      0   0   0   0   0   
      0   0   0   0   0   
      0   0   0   0   0   
      0   0   0   0   0   
      0   0   0   0   0   
      0   0   0   0   0   
      0   0   0   0   0   
      0   0   0   0   0   
      0   0   0   0   0   
      0   0   0   0   0   
      0   0   0   0   0   
      0   0   0   0   0   
      0   0   0   0   0   
      0   0   0   0   0   
      0   0   0   0   0   
      0   0   0   0   0   
      0   0   0   0   0   
      0   0   0   0   0   
      0   0   0   0   0   
      0   0   0   0   0   
      0.580361339897   0.580333018498   0.58024802404   0.580106266167   0.579907595725   
      0.579651807184   0.579338642514   0.578967797061   0.578538928158   0.578051667398   
      0.577505637775   0.576900477122   0.576235869498   0.575511586393   0.574727539669   
      0.573883848099   0.572980919058   0.572019546315   0.5710010239   0.569927274663   
      0.568800990419   0.567625778504   0.566406307437   0.565148442276   0.563859358595   
      0.562547623027   0.561223228316   0.55989757203   0.558583370536   0.557294503349   
      0.556045787431   0.554852685746   0.553730959161   0.552696274897   0.551763787931   
      0.55094771375   0.550260911498   0.54971449603   0.5493174958   0.549076571115   
      0.548995804432   0.549076571115   0.5493174958   0.54971449603   0.550260911498   
      0.55094771375   0.551763787931   0.552696274897   0.553730959161   0.554852685746   
      0.556045787431   0.557294503349   0.558583370536   0.55989757203   0.561223228316   
      0.562547623027   0.563859358595   0.565148442276   0.566406307437   0.567625778504   
      0.568800990419   0.569927274663   0.5710010239   0.572019546315   0.572980919058   
      0.573883848099   0.574727539669   0.575511586393   0.576235869498   0.576900477122   
      0.577505637775   0.578051667398   0.578538928158   0.578967797061   0.579338642514   
      0.579651807184   0.579907595725   0.580106266167   0.58024802404   0.580333018498   
      0.471727437092   0.471688536719   0.471571782458   0.47137701567   0.471103974691   
      0.47075229933   0.470321537969   0.469811158123   0.469220561604   0.468549105741   
      0.467796132465   0.466961007382   0.466043171212   0.465042206184   0.463957919915   
      0.462790449052   0.461540384281   0.460208917182   0.458798007774   0.457310569427   
      0.455750665162   0.454123706485   0.45243664302   0.450698128713   0.448918648822   
      0.447110591549   0.44528824948   0.443467739041   0.441666830783   0.439904689201   
      0.438201527169   0.436578186375   0.435055660449   0.433654581333   0.432394691433   
      0.43129432418   0.430369914101   0.429635554732   0.429102619309   0.428779455565   
      0.428671162681   0.428779455565   0.429102619309   0.429635554732   0.430369914101   
      0.43129432418   0.432394691433   0.433654581333   0.435055660449   0.436578186375   
      0.438201527169   0.439904689201   0.441666830783   0.443467739041   0.44528824948   
      0.447110591549   0.448918648822   0.450698128713   0.45243664302   0.454123706485   
      0.455750665162   0.457310569427   0.458798007774   0.460208917182   0.461540384281   
      0.462790449052   0.463957919915   0.465042206184   0.466043171212   0.466961007382   
      0.467796132465   0.468549105741   0.469220561604   0.469811158123   0.470321537969   
      0.47075229933   0.471103974691   0.47137701567   0.471571782458   0.471688536719   
      0.450254587242   0.450203877685   0.450051684686   0.449797816678   0.449441959236   
      0.448983682931   0.448422455461   0.447757659247   0.446988616067   0.446114620712   
      0.445134986014   0.444049101984   0.442856512015   0.441557009155   0.440150755204   
      0.438638424721   0.437021374801   0.435301839653   0.433483146478   0.431569946065   
      0.42956844798   0.42748664668   0.425334521767   0.42312419348   0.420870014081   
      0.418588577365   0.416298632427   0.414020893803   0.411777747663   0.40959286193   
      0.407490715917   0.405496071314   0.403633410156   0.401926366513   0.40039717695   
      0.399066171029   0.397951317883   0.39706783932   0.39642789472   0.396040338986   
      0.395910552243   0.396040338986   0.39642789472   0.39706783932   0.397951317883   
      0.399066171029   0.40039717695   0.401926366513   0.403633410156   0.405496071314   
      0.407490715917   0.40959286193   0.411777747663   0.414020893803   0.416298632427   
      0.418588577365   0.420870014081   0.42312419348   0.425334521767   0.42748664668   
      0.42956844798   0.431569946065   0.433483146478   0.435301839653   0.437021374801   
      0.438638424721   0.440150755204   0.441557009155   0.442856512015   0.444049101984   
      0.445134986014   0.446114620712   0.446988616067   0.447757659247   0.448422455461   
      0.448983682931   0.449441959236   0.449797816678   0.450051684686   0.450203877685   
      0.429132579964   0.429069479912   0.428880115999   0.428564299182   0.428121722031   
      0.427551970938   0.426854544729   0.426028881227   0.425074393788   0.423990520313   
      0.422776787641   0.421432894547   0.419958816698   0.418354936677   0.416622201548   
      0.414762309166   0.412777922411   0.410672907751   0.408452590999   0.406124019007   
      0.403696211851   0.401180386196   0.398590127991   0.39594149194   0.393253007173   
      0.390545573418   0.387842239592   0.385167866348   0.382548684541   0.380011771148   
      0.377584471514   0.375293800659   0.373165856265   0.371225272056   0.369494733496   
      0.367994569272   0.366742423385   0.365753005079   0.365037908215   0.364605488609   
      0.364460787194   0.364605488609   0.365037908215   0.365753005079   0.366742423385   
      0.367994569272   0.369494733496   0.371225272056   0.373165856265   0.375293800659   
      0.377584471514   0.380011771148   0.382548684541   0.385167866348   0.387842239592   
      0.390545573418   0.393253007173   0.39594149194   0.398590127991   0.401180386196   
      0.403696211851   0.406124019007   0.408452590999   0.410672907751   0.412777922411   
      0.414762309166   0.416622201548   0.418354936677   0.419958816698   0.421432894547   
      0.422776787641   0.423990520313   0.425074393788   0.426028881227   0.426854544729   
      0.427551970938   0.428121722031   0.428564299182   0.428880115999   0.429069479912   
      0.412598960194   0.412525839879   0.412306427804   0.411940573647   0.411428037368   
      0.410768505885   0.409961618284   0.409007001454   0.407904318569   0.406653333329   
      0.405253993273   0.403706535687   0.402011619476   0.400170485859   0.398185149468   
      0.396058619474   0.393795147453   0.391400494918   0.388882208932   0.386249889396   
      0.383515427097   0.380693188325   0.377800120698   0.374855756747   0.37188209721   
      0.368903364886   0.365945631447   0.363036332269   0.360203696172   0.357476125938   
      0.354881569918   0.352446924313   0.35019749993   0.348156577639   0.346345065093   
      0.344781255483   0.343480678879   0.342456029215   0.341717145765   0.341271027025   
      0.341121856866   0.341271027025   0.341717145765   0.342456029215   0.343480678879   
      0.344781255483   0.346345065093   0.348156577639   0.35019749993   0.352446924313   
      0.354881569918   0.357476125938   0.360203696172   0.363036332269   0.365945631447   
      0.368903364886   0.37188209721   0.374855756747   0.377800120698   0.380693188325   
      0.383515427097   0.386249889396   0.388882208932   0.391400494918   0.393795147453   
      0.396058619474   0.398185149468   0.400170485859   0.402011619476   0.403706535687   
      0.405253993273   0.406653333329   0.407904318569   0.409007001454   0.409961618284   
      0.410768505885   0.411428037368   0.411940573647   0.412306427804   0.412525839879   
      0.39949587353   0.399415425933   0.399174049079   0.398771644638   0.398208061893   
      0.39748311859   0.396596632308   0.395548464533   0.394338580194   0.392967125896   
      0.391434530433   0.38974163118   0.387889829564   0.385881277816   0.383719097369   
      0.381407626493   0.378952690987   0.37636188704   0.373644860108   0.370813558455   
      0.367882435778   0.364868575186   0.361791707857   0.358674104719   0.355540328744   
      0.352416848177   0.349331525742   0.346313013213   0.34339009217   0.340591008133   
      0.337942845253   0.335470982427   0.333198660287   0.331146674184   0.329333193537   
      0.327773694884   0.32648098631   0.325465295242   0.324734389911   0.324293706454   
      0.324146457808   0.324293706454   0.324734389911   0.325465295242   0.32648098631   
      0.327773694884   0.329333193537   0.331146674184   0.333198660287   0.335470982427   
      0.337942845253   0.340591008133   0.34339009217   0.346313013213   0.349331525742   
      0.352416848177   0.355540328744   0.358674104719   0.361791707857   0.364868575186   
      0.367882435778   0.370813558455   0.373644860108   0.37636188704   0.378952690987   
      0.381407626493   0.383719097369   0.385881277816   0.387889829564   0.38974163118   
      0.391434530433   0.392967125896   0.394338580194   0.395548464533   0.396596632308   
      0.39748311859   0.398208061893   0.398771644638   0.399174049079   0.399415425933   
      0.38992513399   0.389839843108   0.389583952087   0.389157410341   0.388560149071   
      0.38779210576   0.386853260913   0.38574368945   0.384463629766   0.383013573913   
      0.381394382616   0.379607428667   0.377654771536   0.375539364611   0.373265294042   
      0.370838044722   0.368264784376   0.365554651316   0.362719025716   0.359771759001   
      0.356729332402   0.353610915074   0.35043829562   0.347235668986   0.3440292733   
      0.340846886969   0.33771721302   0.334669192228   0.331731296334   0.328930855476   
      0.326293469214   0.323842539194   0.321598945675   0.319580872848   0.317803771839   
      0.316280437739   0.315021169072   0.31403397488   0.313324795479   0.312897706809   
      0.312755084039   0.312897706809   0.313324795479   0.31403397488   0.315021169072   
      0.316280437739   0.317803771839   0.319580872848   0.321598945675   0.323842539194   
      0.326293469214   0.328930855476   0.331731296334   0.334669192228   0.33771721302   
      0.340846886969   0.3440292733   0.347235668986   0.35043829562   0.353610915074   
      0.356729332402   0.359771759001   0.362719025716   0.365554651316   0.368264784376   
      0.370838044722   0.373265294042   0.375539364611   0.377654771536   0.379607428667   
      0.381394382616   0.383013573913   0.384463629766   0.38574368945   0.386853260913   
      0.38779210576   0.388560149071   0.389157410341   0.389583952087   0.389839843108   
      0.3837269272   0.383638754869   0.383374230812   0.382933338909   0.382316069606   
      0.381522447205   0.380552570696   0.379406670708   0.378085185726   0.376588861189   
      0.374918875179   0.37307699414   0.371065761082   0.368888716947   0.366550652928   
      0.364057887563   0.361418557329   0.358642903596   0.355743532878   0.352735622234   
      0.349637038875   0.346468343766   0.343252654434   0.340015352734   0.336783638307   
      0.33358594612   0.330451263959   0.327408399807   0.324485256777   0.32170817292   
      0.319101374814   0.316686578876   0.314482755871   0.312506055291   0.310769870175   
      0.309285011466   0.308059954854   0.307101121918   0.30641316015   0.305999191792   
      0.305861007995   0.305999191792   0.30641316015   0.307101121918   0.308059954854   
      0.309285011466   0.310769870175   0.312506055291   0.314482755871   0.316686578876   
      0.319101374814   0.32170817292   0.324485256777   0.327408399807   0.330451263959   
      0.33358594612   0.336783638307   0.340015352734   0.343252654434   0.346468343766   
      0.349637038875   0.352735622234   0.355743532878   0.358642903596   0.361418557329   
      0.364057887563   0.366550652928   0.368888716947   0.371065761082   0.37307699414   
      0.374918875179   0.376588861189   0.378085185726   0.379406670708   0.380552570696   
      0.381522447205   0.382316069606   0.382933338909   0.383374230812   0.383638754869   
      0.380697853086   0.380608347153   0.380339828124   0.379892297687   0.379265776952   
      0.378460335285   0.377476133375   0.376313483212   0.374972928182   0.373455346952   
      0.37176208485   0.369895116073   0.367857238956   0.365652304508   0.363285475355   
      0.360763507928   0.358095045393   0.35529090274   0.35236431944   0.3493311502   
      0.34620996198   0.34302200701   0.339791048106   0.336543024359   0.333305561523   
      0.330107349889   0.32697743021   0.323944441714   0.321035892763   0.318277512508   
      0.315692731493   0.313302322442   0.311124212721   0.309173460692   0.307462372284   
      0.306000723364   0.304796048481   0.303853956521   0.303178437578   0.302772131391   
      0.302636534639   0.302772131391   0.303178437578   0.303853956521   0.304796048481   
      0.306000723364   0.307462372284   0.309173460692   0.311124212721   0.313302322442   
      0.315692731493   0.318277512508   0.321035892763   0.323944441714   0.32697743021   
      0.330107349889   0.333305561523   0.336543024359   0.339791048106   0.34302200701   
      0.34620996198   0.3493311502   0.35236431944   0.35529090274   0.358095045393   
      0.360763507928   0.363285475355   0.365652304508   0.367857238956   0.369895116073   
      0.37176208485   0.373455346952   0.374972928182   0.376313483212   0.377476133375   
      0.378460335285   0.379265776952   0.379892297687   0.380339828124   0.380608347153   
      0.380697853086   0.380608347153   0.380339828124   0.379892297687   0.379265776952   
      0.378460335285   0.377476133375   0.376313483212   0.374972928182   0.373455346952   
      0.37176208485   0.369895116073   0.367857238956   0.365652304508   0.363285475355   
      0.360763507928   0.358095045393   0.35529090274   0.35236431944   0.3493311502   
      0.34620996198   0.34302200701   0.339791048106   0.336543024359   0.333305561523   
      0.330107349889   0.32697743021   0.323944441714   0.321035892763   0.318277512508   
      0.315692731493   0.313302322442   0.311124212721   0.309173460692   0.307462372284   
      0.306000723364   0.304796048481   0.303853956521   0.303178437578   0.302772131391   
      0.302636534639   0.302772131391   0.303178437578   0.303853956521   0.304796048481   
      0.306000723364   0.307462372284   0.309173460692   0.311124212721   0.313302322442   
      0.315692731493   0.318277512508   0.321035892763   0.323944441714   0.32697743021   
      0.330107349889   0.333305561523   0.336543024359   0.339791048106   0.34302200701   
      0.34620996198   0.3493311502   0.35236431944   0.35529090274   0.358095045393   
      0.360763507928   0.363285475355   0.365652304508   0.367857238956   0.369895116073   
      0.37176208485   0.373455346952   0.374972928182   0.376313483212   0.377476133375   
      0.378460335285   0.379265776952   0.379892297687   0.380339828124   0.380608347153   
      0.3837269272   0.383638754869   0.383374230812   0.382933338909   0.382316069606   
      0.381522447205   0.380552570696   0.379406670708   0.378085185726   0.376588861189   
      0.374918875179   0.37307699414   0.371065761082   0.368888716947   0.366550652928   
      0.364057887563   0.361418557329   0.358642903596   0.355743532878   0.352735622234   
      0.349637038875   0.346468343766   0.343252654434   0.340015352734   0.336783638307   
      0.33358594612   0.330451263959   0.327408399807   0.324485256777   0.32170817292   
      0.319101374814   0.316686578876   0.314482755871   0.312506055291   0.310769870175   
      0.309285011466   0.308059954854   0.307101121918   0.30641316015   0.305999191792   
      0.305861007995   0.305999191792   0.30641316015   0.307101121918   0.308059954854   
      0.309285011466   0.310769870175   0.312506055291   0.314482755871   0.316686578876   
      0.319101374814   0.32170817292   0.324485256777   0.327408399807   0.330451263959   
      0.33358594612   0.336783638307   0.340015352734   0.343252654434   0.346468343766   
      0.349637038875   0.352735622234   0.355743532878   0.358642903596   0.361418557329   
      0.364057887563   0.366550652928   0.368888716947   0.371065761082   0.37307699414   
      0.374918875179   0.376588861189   0.378085185726   0.379406670708   0.380552570696   
      0.381522447205   0.382316069606   0.382933338909   0.383374230812   0.383638754869   
      0.38992513399   0.389839843108   0.389583952087   0.389157410341   0.388560149071   
      0.38779210576   0.386853260913   0.38574368945   0.384463629766   0.383013573913   
      0.381394382616   0.379607428667   0.377654771536   0.375539364611   0.373265294042   
      0.370838044722   0.368264784376   0.365554651316   0.362719025716   0.359771759001   
      0.356729332402   0.353610915074   0.35043829562   0.347235668986   0.3440292733   
      0.340846886969   0.33771721302   0.334669192228   0.331731296334   0.328930855476   
      0.326293469214   0.323842539194   0.321598945675   0.319580872848   0.317803771839   
      0.316280437739   0.315021169072   0.31403397488   0.313324795479   0.312897706809   
      0.312755084039   0.312897706809   0.313324795479   0.31403397488   0.315021169072   
      0.316280437739   0.317803771839   0.319580872848   0.321598945675   0.323842539194   
      0.326293469214   0.328930855476   0.331731296334   0.334669192228   0.33771721302   
      0.340846886969   0.3440292733   0.347235668986   0.35043829562   0.353610915074   
      0.356729332402   0.359771759001   0.362719025716   0.365554651316   0.368264784376   
      0.370838044722   0.373265294042   0.375539364611   0.377654771536   0.379607428667   
      0.381394382616   0.383013573913   0.384463629766   0.38574368945   0.386853260913   
      0.38779210576   0.388560149071   0.389157410341   0.389583952087   0.389839843108   
      0.39949587353   0.399415425933   0.399174049079   0.398771644638   0.398208061893   
      0.39748311859   0.396596632308   0.395548464533   0.394338580194   0.392967125896   
      0.391434530433   0.38974163118   0.387889829564   0.385881277816   0.383719097369   
      0.381407626493   0.378952690987   0.37636188704   0.373644860108   0.370813558455   
      0.367882435778   0.364868575186   0.361791707857   0.358674104719   0.355540328744   
      0.352416848177   0.349331525742   0.346313013213   0.34339009217   0.340591008133   
      0.337942845253   0.335470982427   0.333198660287   0.331146674184   0.329333193537   
      0.327773694884   0.32648098631   0.325465295242   0.324734389911   0.324293706454   
      0.324146457808   0.324293706454   0.324734389911   0.325465295242   0.32648098631   
      0.327773694884   0.329333193537   0.331146674184   0.333198660287   0.335470982427   
      0.337942845253   0.340591008133   0.34339009217   0.346313013213   0.349331525742   
      0.352416848177   0.355540328744   0.358674104719   0.361791707857   0.364868575186   
      0.367882435778   0.370813558455   0.373644860108   0.37636188704   0.378952690987   
      0.381407626493   0.383719097369   0.385881277816   0.387889829564   0.38974163118   
      0.391434530433   0.392967125896   0.394338580194   0.395548464533   0.396596632308   
      0.39748311859   0.398208061893   0.398771644638   0.399174049079   0.399415425933   
      0.412598960194   0.412525839879   0.412306427804   0.411940573647   0.411428037368   
      0.410768505885   0.409961618284   0.409007001454   0.407904318569   0.406653333329   
      0.405253993273   0.403706535687   0.402011619476   0.400170485859   0.398185149468   
      0.396058619474   0.393795147453   0.391400494918   0.388882208932   0.386249889396   
      0.383515427097   0.380693188325   0.377800120698   0.374855756747   0.37188209721   
      0.368903364886   0.365945631447   0.363036332269   0.360203696172   0.357476125938   
      0.354881569918   0.352446924313   0.35019749993   0.348156577639   0.346345065093   
      0.344781255483   0.343480678879   0.342456029215   0.341717145765   0.341271027025   
      0.341121856866   0.341271027025   0.341717145765   0.342456029215   0.343480678879   
      0.344781255483   0.346345065093   0.348156577639   0.35019749993   0.352446924313   
      0.354881569918   0.357476125938   0.360203696172   0.363036332269   0.365945631447   
      0.368903364886   0.37188209721   0.374855756747   0.377800120698   0.380693188325   
      0.383515427097   0.386249889396   0.388882208932   0.391400494918   0.393795147453   
      0.396058619474   0.398185149468   0.400170485859   0.402011619476   0.403706535687   
      0.405253993273   0.406653333329   0.407904318569   0.409007001454   0.409961618284   
      0.410768505885   0.411428037368   0.411940573647   0.412306427804   0.412525839879   
      0.429132579964   0.429069479912   0.428880115999   0.428564299182   0.428121722031   