<?xml version="1.0"?>
<VTKFile type="ImageData" version="0.1" byte_order="LittleEndian">
  <ImageData WholeExtent="0 79 0 19 0 19" Origin="0 0 0" Spacing="1 1 1">
  <Piece Extent="0 79 0 19 0 19">
    <PointData Scalars="density">
       <DataArray type="Float32" Name="bluedensity" NumberOfComponents="1" format="ascii">
      0   0   0   0   0   
      0   0   0   0   0   
      0   0   0   0   0   
      0   0   0   0   0   
      0   0   0   0   0   
      0   0   0   0   0   
      0   0   0   0   0   
      0   0   0   0   0   
      0   0   0   0   0   
      0   0   0   0   0   
      0   0   0   0   0   
      0   0   0   0   0   
      0   0   0   0   0   
      0   0   0   0   0   
      0   0   0   0   0   
      0   0   0   0   0   
      0   0   0   0   0   
      0   0   0   0   0   
      0   0   0   0   0   
      0   0   0   0   0   
      0   0   0   0   0   
      0   0   0   0   0   
      0   0   0   0   0   
      0   0   0   0   0   
      0   0   0   0   0   
      0   0   0   0   0   
      0   0   0   0   0   
      0   0   0   0   0   
      0   0   0   0   0   
      0   0   0   0   0   
      0   0   0   0   0   
      0   0   0   0   0   
      0   0   0   0   0   
      0   0   0   0   0   
      0   0   0   0   0   
      0   0   0   0   0   
      0   0   0   0   0   
      0   0   0   0   0   
      0   0   0   0   0   
      0   0   0   0   0   
      0   0   0   0   0   
      0   0   0   0   0   
      0   0   0   0   0   
      0   0   0   0   0   
      0   0   0   0   0   
      0   0   0   0   0   
      0   0   0   0   0   
      0   0   0   0   0   
      0   0   0   0   0   
      0   0   0   0   0   
      0   0   0   0   0   
      0   0   0   0   0   
      0   0   0   0   0   
      0   0   0   0   0   
      0   0   0   0   0   
      0   0   0   0   0   
      0   0   0   0   0   
      0   0   0   0   0   
      0   0   0   0   0   
      0   0   0   0   0   
      0   0   0   0   0   
      0   0   0   0   0   
      0   0   0   0   0   
      0   0   0   0   0   
      0   0   0   0   0   
      0   0   0   0   0   
      0   0   0   0   0   
      0   0   0   0   0   
      0   0   0   0   0   
      0   0   0   0   0   
      0   0   0   0   0   
      0   0   0   0   0   
      0   0   0   0   0   
      0   0   0   0   0   
      0   0   0   0   0   
      0   0   0   0   0   
      0   0   0   0   0   
      0   0   0   0   0   
      0   0   0   0   0   
      0   0   0   0   0   
      0   0   0   0   0   
      0   0   0   0   0   
      0   0   0   0   0   
      0   0   0   0   0   
      0   0   0   0   0   
      0   0   0   0   0   
      0   0   0   0   0   
      0   0   0   0   0   
      0   0   0   0   0   
      0   0   0   0   0   
      0   0   0   0   0   
      0   0   0   0   0   
      0   0   0   0   0   
      0   0   0   0   0   
      0   0   0   0   0   
      0   0   0   0   0   
      0   0   0   0   0   
      0   0   0   0   0   
      0   0   0   0   0   
      0   0   0   0   0   
      0   0   0   0   0   
      0   0   0   0   0   
      0   0   0   0   0   
      0   0   0   0   0   
      0   0   0   0   0   
      0   0   0   0   0   
      0   0   0   0   0   
      0   0   0   0   0   
      0   0   0   0   0   
      0   0   0   0   0   
      0   0   0   0   0   
      0   0   0   0   0   
      0   0   0   0   0   
      0   0   0   0   0   
      0   0   0   0   0   
      0   0   0   0   0   
      0   0   0   0   0   
      0   0   0   0   0   
      0   0   0   0   0   
      0   0   0   0   0   
      0   0   0   0   0   
      0   0   0   0   0   
      0   0   0   0   0   
      0   0   0   0   0   
      0   0   0   0   0   
      0   0   0   0   0   
      0   0   0   0   0   
      0   0   0   0   0   
      0   0   0   0   0   
      0   0   0   0   0   
      0   0   0   0   0   
      0   0   0   0   0   
      0   0   0   0   0   
      0   0   0   0   0   
      0   0   0   0   0   
      0   0   0   0   0   
      0   0   0   0   0   
      0   0   0   0   0   
      0   0   0   0   0   
      0   0   0   0   0   
      0   0   0   0   0   
      0   0   0   0   0   
      0   0   0   0   0   
      0   0   0   0   0   
      0   0   0   0   0   
      0   0   0   0   0   
      0   0   0   0   0   
      0   0   0   0   0   
      0   0   0   0   0   
      0   0   0   0   0   
      0   0   0   0   0   
      0   0   0   0   0   
      0   0   0   0   0   
      0   0   0   0   0   
      0   0   0   0   0   
      0   0   0   0   0   
      0   0   0   0   0   
      0   0   0   0   0   
      0   0   0   0   0   
      0   0   0   0   0   
      0   0   0   0   0   
      0   0   0   0   0   
      0   0   0   0   0   
      0   0   0   0   0   
      0   0   0   0   0   
      0   0   0   0   0   
      0   0   0   0   0   
      0   0   0   0   0   
      0   0   0   0   0   
      0   0   0   0   0   
      0   0   0   0   0   
      0   0   0   0   0   
      0   0   0   0   0   
      0   0   0   0   0   
      0   0   0   0   0   
      0   0   0   0   0   
      0   0   0   0   0   
      0   0   0   0   0   
      0   0   0   0   0   
      0   0   0   0   0   
      0   0   0   0   0   
      0   0   0   0   0   
      0   0   0   0   0   
      0   0   0   0   0   
      0   0   0   0   0   
      0   0   0   0   0   
      0   0   0   0   0   
      0   0   0   0   0   
      0   0   0   0   0   
      0   0   0   0   0   
      0   0   0   0   0   
      0   0   0   0   0   
      0   0   0   0   0   
      0   0   0   0   0   
      0   0   0   0   0   
      0   0   0   0   0   
      0   0   0   0   0   
      0   0   0   0   0   
      0   0   0   0   0   
      0   0   0   0   0   
      0   0   0   0   0   
      0   0   0   0   0   
      0   0   0   0   0   
      0   0   0   0   0   
      0   0   0   0   0   
      0   0   0   0   0   
      0   0   0   0   0   
      0   0   0   0   0   
      0   0   0   0   0   
      0   0   0   0   0   
      0   0   0   0   0   
      0   0   0   0   0   
      0   0   0   0   0   
      0   0   0   0   0   
      0   0   0   0   0   
      0   0   0   0   0   
      0   0   0   0   0   
      0   0   0   0   0   
      0   0   0   0   0   
      0   0   0   0   0   
      0   0   0   0   0   
      0   0   0   0   0   
      0   0   0   0   0   
      0   0   0   0   0   
      0   0   0   0   0   
      0   0   0   0   0   
      0   0   0   0   0   
      0   0   0   0   0   
      0   0   0   0   0   
      0   0   0   0   0   
      0   0   0   0   0   
      0   0   0   0   0   
      0   0   0   0   0   
      0   0   0   0   0   
      0   0   0   0   0   
      0   0   0   0   0   
      0   0   0   0   0   
      0   0   0   0   0   
      0   0   0   0   0   
      0   0   0   0   0   
      0   0   0   0   0   
      0   0   0   0   0   
      0   0   0   0   0   
      0   0   0   0   0   
      0   0   0   0   0   
      0   0   0   0   0   
      0   0   0   0   0   
      0   0   0   0   0   
      0   0   0   0   0   
      0   0   0   0   0   
      0   0   0   0   0   
      0   0   0   0   0   
      0   0   0   0   0   
      0   0   0   0   0   
      0   0   0   0   0   
      0   0   0   0   0   
      0   0   0   0   0   
      0   0   0   0   0   
      0   0   0   0   0   
      0   0   0   0   0   
      0   0   0   0   0   
      0   0   0   0   0   
      0   0   0   0   0   
      0   0   0   0   0   
      0   0   0   0   0   
      0   0   0   0   0   
      0   0   0   0   0   
      0   0   0   0   0   
      0   0   0   0   0   
      0   0   0   0   0   
      0   0   0   0   0   
      0   0   0   0   0   
      0   0   0   0   0   
      0   0   0   0   0   
      0   0   0   0   0   
      0   0   0   0   0   
      0   0   0   0   0   
      0   0   0   0   0   
      0   0   0   0   0   
      0   0   0   0   0   
      0   0   0   0   0   
      0   0   0   0   0   
      0   0   0   0   0   
      0   0   0   0   0   
      0   0   0   0   0   
      0   0   0   0   0   
      0   0   0   0   0   
      0   0   0   0   0   
      0   0   0   0   0   
      0   0   0   0   0   
      0   0   0   0   0   
      0   0   0   0   0   
      0   0   0   0   0   
      0   0   0   0   0   
      0   0   0   0   0   
      0   0   0   0   0   
      0   0   0   0   0   
      0   0   0   0   0   
      0   0   0   0   0   
      0   0   0   0   0   
      0   0   0   0   0   
      0   0   0   0   0   
      0   0   0   0   0   
      0   0   0   0   0   
      0   0   0   0   0   
      0   0   0   0   0   
      0   0   0   0   0   
      0   0   0   0   0   
      0   0   0   0   0   
      0   0   0   0   0   
      0   0   0   0   0   
      0   0   0   0   0   
      0   0   0   0   0   
      0   0   0   0   0   
      0   0   0   0   0   
      0   0   0   0   0   
      0   0   0   0   0   
      0   0   0   0   0   
      0   0   0   0   0   
      0   0   0   0   0   
      0   0   0   0   0   
      0   0   0   0   0   
      0   0   0   0   0   
      0   0   0   0   0   
      0   0   0   0   0   
      0   0   0   0   0   
      0   0   0   0   0   
      0   0   0   0   0   
      0   0   0   0   0   
      0   0   0   0   0   
      0   0   0   0   0   
      0   0   0   0   0   
      0   0   0   0   0   
      0   0   0   0   0   
      0   0   0   0   0   
      0   0   0   0   0   
      0.574160708693   0.574146743006   0.574104878301   0.574035212198   0.57393790926   
      0.573813203787   0.573661403722   0.573482895676   0.573278151042   0.57304773318   
      0.572792305617   0.572512641186   0.572209631988   0.571884300008   0.571537808173   
      0.57117147158   0.570786768516   0.570385350876   0.569969053462   0.569539901602   
      0.569100116467   0.568652117416   0.568198520692   0.567742133799   0.567285944961   
      0.566833107123   0.566386916129   0.565950782875   0.565528199448   0.565122699511   
      0.564737813482   0.564377019296   0.564043689818   0.563741038209   0.563472062732   
      0.563239492629   0.563045736747   0.56289283661   0.562782425512   0.562715695075   
      0.562693370452   0.562715695075   0.562782425512   0.56289283661   0.563045736747   
      0.563239492629   0.563472062732   0.563741038209   0.564043689818   0.564377019296   
      0.564737813482   0.565122699511   0.565528199448   0.565950782875   0.566386916129   
      0.566833107123   0.567285944961   0.567742133799   0.568198520692   0.568652117416   
      0.569100116467   0.569539901602   0.569969053462   0.570385350876   0.570786768516   
      0.57117147158   0.571537808173   0.571884300008   0.572209631988   0.572512641186   
      0.572792305617   0.57304773318   0.573278151042   0.573482895676   0.573661403722   
      0.573813203787   0.57393790926   0.574035212198   0.574104878301   0.574146743006   
      0.462685968142   0.462666607409   0.462608569136   0.462511985935   0.462377081593   
      0.462204175223   0.461993687066   0.461746145919   0.461462198166   0.461142618351   
      0.460788321195   0.460400374929   0.459980015744   0.459528663095   0.459047935529   
      0.458539666579   0.458005920222   0.45744900525   0.456871487842   0.456276201513   
      0.455666253573   0.45504502718   0.454416178062   0.453783625051   0.453151533656   
      0.452524292052   0.451906479082   0.451302824136   0.45071815905   0.450157362534   
      0.449625297968   0.449126745755   0.448666331721   0.448248453363   0.447877205903   
      0.447556310274   0.447289045207   0.447078185513   0.446925948549   0.446833950605   
      0.446803174662   0.446833950605   0.446925948549   0.447078185513   0.447289045207   
      0.447556310274   0.447877205903   0.448248453363   0.448666331721   0.449126745755   
      0.449625297968   0.450157362534   0.45071815905   0.451302824136   0.451906479082   
      0.452524292052   0.453151533656   0.453783625051   0.454416178062   0.45504502718   
      0.455666253573   0.456276201513   0.456871487842   0.45744900525   0.458005920222   
      0.458539666579   0.459047935529   0.459528663095   0.459980015744   0.460400374929   
      0.460788321195   0.461142618351   0.461462198166   0.461746145919   0.461993687066   
      0.462204175223   0.462377081593   0.462511985935   0.462608569136   0.462666607409   
      0.438161029741   0.438135949816   0.438060770306   0.437935673089   0.437760964915   
      0.43753708282   0.437264601671   0.436944243804   0.436576890671   0.436163596406   
      0.435705603138   0.435204357838   0.434661530389   0.434079032513   0.433459037034   
      0.432803996886   0.432116663146   0.431400101237   0.430657704384   0.429893203272   
      0.429110670846   0.428314521164   0.427509501242   0.42670067497   0.425893398292   
      0.425093285114   0.424306163675   0.423538023454   0.422794953051   0.42208306989   
      0.421408442967   0.420777010187   0.420194492205   0.419666304864   0.419197472512   
      0.41879254454   0.418455517463   0.418189764747   0.417997976396   0.417882110042   
      0.417843354959   0.417882110042   0.417997976396   0.418189764747   0.418455517463   
      0.41879254454   0.419197472512   0.419666304864   0.420194492205   0.420777010187   
      0.421408442967   0.42208306989   0.422794953051   0.423538023454   0.424306163675   
      0.425093285114   0.425893398292   0.42670067497   0.427509501242   0.428314521164   
      0.429110670846   0.429893203272   0.430657704384   0.431400101237   0.432116663146   
      0.432803996886   0.433459037034   0.434079032513   0.434661530389   0.435204357838   
      0.435705603138   0.436163596406   0.436576890671   0.436944243804   0.437264601671   
      0.43753708282   0.437760964915   0.437935673089   0.438060770306   0.438135949816   
      0.413880360063   0.41384955364   0.413757214727   0.413603585702   0.41338907491   
      0.4131142632   0.412779913001   0.412386979874   0.411936626382   0.411430238137   
      0.410869441746   0.410256124347   0.409592454289   0.40888090243   0.408124263375   
      0.407325675859   0.406488641369   0.405617039947   0.404715142049   0.403787615277   
      0.402839524754   0.401876325997   0.400903849208   0.399928274119   0.398956094742   
      0.397994073707   0.397049186236   0.396128554185   0.395239371013   0.394388818934   
      0.393583979869   0.392831742114   0.392138704887   0.391511083033   0.390954614227   
      0.390474470977   0.390075179586   0.389760548056   0.389533604666   0.389396548675   
      0.389350714281   0.389396548675   0.389533604666   0.389760548056   0.390075179586   
      0.390474470977   0.390954614227   0.391511083033   0.392138704887   0.392831742114   
      0.393583979869   0.394388818934   0.395239371013   0.396128554185   0.397049186236   
      0.397994073707   0.398956094742   0.399928274119   0.400903849208   0.401876325997   
      0.402839524754   0.403787615277   0.404715142049   0.405617039947   0.406488641369   
      0.407325675859   0.408124263375   0.40888090243   0.409592454289   0.410256124347   
      0.410869441746   0.411430238137   0.411936626382   0.412386979874   0.412779913001   
      0.4131142632   0.41338907491   0.413603585702   0.413757214727   0.41384955364   
      0.394826760213   0.394791599563   0.394686217278   0.394510913814   0.39426619481   
      0.393952778333   0.393571604927   0.393123850314   0.392610940566   0.392034569501   
      0.391396717947   0.390699674449   0.389946056832   0.389138833959   0.388281346849   
      0.387377328194   0.386430919206   0.38544668261   0.38442961053   0.383385126006   
      0.38231907691   0.381237721155   0.380147702248   0.379056014538   0.377969957788   
      0.376897081142   0.375845116911   0.374821905082   0.373835309821   0.372893129621   
      0.372003003034   0.371172312093   0.370408085687   0.369716905075   0.369104813694   
      0.368577233201   0.368138887485   0.367793736093   0.367544918296   0.367394708686   
      0.367344485008   0.367394708686   0.367544918296   0.367793736093   0.368138887485   
      0.368577233201   0.369104813694   0.369716905075   0.370408085687   0.371172312093   
      0.372003003034   0.372893129621   0.373835309821   0.374821905082   0.375845116911   
      0.376897081142   0.377969957788   0.379056014538   0.380147702248   0.381237721155   
      0.38231907691   0.383385126006   0.38442961053   0.38544668261   0.386430919206   
      0.387377328194   0.388281346849   0.389138833959   0.389946056832   0.390699674449   
      0.391396717947   0.392034569501   0.392610940566   0.393123850314   0.393571604927   
      0.393952778333   0.39426619481   0.394510913814   0.394686217278   0.394791599563   
      0.379904622377   0.379866472701   0.37975213975   0.379561973305   0.3792965615   
      0.378956738483   0.378543594987   0.378058491643   0.377503074761   0.376879294281   
      0.376189423432   0.375436079566   0.374622245485   0.373751290435   0.372826989833   
      0.371853542626   0.370835585095   0.369778199842   0.368686918649   0.367567717949   
      0.366427005747   0.365271599008   0.364108690779   0.362945806683   0.361790750772   
      0.360651541183   0.359536336483   0.358453353994   0.35741078176   0.356416686126   
      0.35547891703   0.354605013236   0.353802109647   0.353076848711   0.352435297684   
      0.351882873246   0.351424274627   0.35106342613   0.350803429616   0.350646527339   
      0.350594075319   0.350646527339   0.350803429616   0.35106342613   0.351424274627   
      0.351882873246   0.352435297684   0.353076848711   0.353802109647   0.354605013236   
      0.35547891703   0.356416686126   0.35741078176   0.358453353994   0.359536336483   
      0.360651541183   0.361790750772   0.362945806683   0.364108690779   0.365271599008   
      0.366427005747   0.367567717949   0.368686918649   0.369778199842   0.370835585095   
      0.371853542626   0.372826989833   0.373751290435   0.374622245485   0.375436079566   
      0.376189423432   0.376879294281   0.377503074761   0.378058491643   0.378543594987   
      0.378956738483   0.3792965615   0.379561973305   0.37975213975   0.379866472701   
      0.369145990904   0.369105992347   0.368986125233   0.368786776837   0.368508597927   
      0.368152510647   0.367719719337   0.36721172409   0.366630336748   0.365977698921   
      0.365256301538   0.364469005264   0.363619061043   0.362710129809   0.361746300347   
      0.36073210411   0.359672525727   0.358573007907   0.357439449409   0.356278194882   
      0.35509601549   0.35390007953   0.352697912526   0.351497346727   0.350306460317   
      0.349133507169   0.347986838355   0.346874817068   0.345805728888   0.344787689559   
      0.343828552488   0.342935818154   0.34211654743   0.341377280547   0.340723963101   
      0.340161880128   0.339695598899   0.339328920773   0.339064842165   0.338905524531   
      0.338852273156   0.338905524531   0.339064842165   0.339328920773   0.339695598899   
      0.340161880128   0.340723963101   0.341377280547   0.34211654743   0.342935818154   
      0.343828552488   0.344787689559   0.345805728888   0.346874817068   0.347986838355   
      0.349133507169   0.350306460317   0.351497346727   0.352697912526   0.35390007953   
      0.35509601549   0.356278194882   0.357439449409   0.358573007907   0.359672525727   
      0.36073210411   0.361746300347   0.362710129809   0.363619061043   0.364469005264   
      0.365256301538   0.365977698921   0.366630336748   0.36721172409   0.367719719337   
      0.368152510647   0.368508597927   0.368786776837   0.368986125233   0.369105992347   
      0.362248818736   0.362207786762   0.362084827741   0.361880353993   0.36159505811   
      0.361229920921   0.360786222418   0.360265555393   0.359669841433   0.359001348841   
      0.358262711892   0.357456950748   0.356587491153   0.355658182946   0.354673316268   
      0.353637634224   0.352556340701   0.351435102015   0.350280041098   0.349097723053   
      0.347895131126   0.346679632408   0.34545893298   0.344241022607   0.343034109596   
      0.341846546854   0.340686750672   0.339563114066   0.338483916826   0.337457234515   
      0.336490848691   0.335592160452   0.33476810917   0.334025097919   0.333368926686   
      0.332804734037   0.332336947529   0.331969242801   0.331704511046   0.331544834428   
      0.331491468962   0.331544834428   0.331704511046   0.331969242801   0.332336947529   
      0.332804734037   0.333368926686   0.334025097919   0.33476810917   0.335592160452   
      0.336490848691   0.337457234515   0.338483916826   0.339563114066   0.340686750672   
      0.341846546854   0.343034109596   0.344241022607   0.34545893298   0.346679632408   
      0.347895131126   0.349097723053   0.350280041098   0.351435102015   0.352556340701   
      0.353637634224   0.354673316268   0.355658182946   0.356587491153   0.357456950748   
      0.358262711892   0.359001348841   0.359669841433   0.360265555393   0.360786222418   
      0.361229920921   0.36159505811   0.361880353993   0.362084827741   0.362207786762   
      0.358898990585   0.358857502562   0.35873317957   0.358526446464   0.358238016757   
      0.357868900616   0.357420415821   0.356894201405   0.356292233616   0.355616843735   
      0.354870737127   0.354057012811   0.353179182651   0.35224118915   0.351247420702   
      0.350202723036   0.34911240553   0.347982241077   0.346818458208   0.345627724362   
      0.34441711939   0.3431940987   0.341966445852   0.340742214842   0.339529662816   
      0.338337174398   0.337173179261   0.336046064933   0.334964087015   0.333935279145   
      0.332967364953   0.332067674078   0.331243064023   0.330499849207   0.329843738161   
      0.329279779339   0.328812315642   0.328444947391   0.328180503261   0.328021018578   
      0.327967720363   0.328021018578   0.328180503261   0.328444947391   0.328812315642   
      0.329279779339   0.329843738161   0.330499849207   0.331243064023   0.332067674078   
      0.332967364953   0.333935279145   0.334964087015   0.336046064933   0.337173179261   
      0.338337174398   0.339529662816   0.340742214842   0.341966445852   0.3431940987   
      0.34441711939   0.345627724362   0.346818458208   0.347982241077   0.34911240553   
      0.350202723036   0.351247420702   0.35224118915   0.353179182651   0.354057012811   
      0.354870737127   0.355616843735   0.356292233616   0.356894201405   0.357420415821   
      0.357868900616   0.358238016757   0.358526446464   0.35873317957   0.358857502562   
      0.358898990585   0.358857502562   0.35873317957   0.358526446464   0.358238016757   
      0.357868900616   0.357420415821   0.356894201405   0.356292233616   0.355616843735   
      0.354870737127   0.354057012811   0.353179182651   0.35224118915   0.351247420702   
      0.350202723036   0.34911240553   0.347982241077   0.346818458208   0.345627724362   
      0.34441711939   0.3431940987   0.341966445852   0.340742214842   0.339529662816   
      0.338337174398   0.337173179261   0.336046064933   0.334964087015   0.333935279145   
      0.332967364953   0.332067674078   0.331243064023   0.330499849207   0.329843738161   
      0.329279779339   0.328812315642   0.328444947391   0.328180503261   0.328021018578   
      0.327967720363   0.328021018578   0.328180503261   0.328444947391   0.328812315642   
      0.329279779339   0.329843738161   0.330499849207   0.331243064023   0.332067674078   
      0.332967364953   0.333935279145   0.334964087015   0.336046064933   0.337173179261   
      0.338337174398   0.339529662816   0.340742214842   0.341966445852   0.3431940987   
      0.34441711939   0.345627724362   0.346818458208   0.347982241077   0.34911240553   
      0.350202723036   0.351247420702   0.35224118915   0.353179182651   0.354057012811   
      0.354870737127   0.355616843735   0.356292233616   0.356894201405   0.357420415821   
      0.357868900616   0.358238016757   0.358526446464   0.35873317957   0.358857502562   
      0.362248818736   0.362207786762   0.362084827741   0.361880353993   0.36159505811   
      0.361229920921   0.360786222418   0.360265555393   0.359669841433   0.359001348841   
      0.358262711892   0.357456950748   0.356587491153   0.355658182946   0.354673316268   
      0.353637634224   0.352556340701   0.351435102015   0.350280041098   0.349097723053   
      0.347895131126   0.346679632408   0.34545893298   0.344241022607   0.343034109596   
      0.341846546854   0.340686750672   0.339563114066   0.338483916826   0.337457234515   
      0.336490848691   0.335592160452   0.33476810917   0.334025097919   0.333368926686   
      0.332804734037   0.332336947529   0.331969242801   0.331704511046   0.331544834428   
      0.331491468962   0.331544834428   0.331704511046   0.331969242801   0.332336947529   
      0.332804734037   0.333368926686   0.334025097919   0.33476810917   0.335592160452   
      0.336490848691   0.337457234515   0.338483916826   0.339563114066   0.340686750672   
      0.341846546854   0.343034109596   0.344241022607   0.34545893298   0.346679632408   
      0.347895131126   0.349097723053   0.350280041098   0.351435102015   0.352556340701   
      0.353637634224   0.354673316268   0.355658182946   0.356587491153   0.357456950748   
      0.358262711892   0.359001348841   0.359669841433   0.360265555393   0.360786222418   
      0.361229920921   0.36159505811   0.361880353993   0.362084827741   0.362207786762   
      0.369145990904   0.369105992347   0.368986125233   0.368786776837   0.368508597927   
      0.368152510647   0.367719719337   0.36721172409   0.366630336748   0.365977698921   
      0.365256301538   0.364469005264   0.363619061043   0.362710129809   0.361746300347   
      0.36073210411   0.359672525727   0.358573007907   0.357439449409   0.356278194882   
      0.35509601549   0.35390007953   0.352697912526   0.351497346727   0.350306460317   
      0.349133507169   0.347986838355   0.346874817068   0.345805728888   0.344787689559   
      0.343828552488   0.342935818154   0.34211654743   0.341377280547   0.340723963101   
      0.340161880128   0.339695598899   0.339328920773   0.339064842165   0.338905524531   
      0.338852273156   0.338905524531   0.339064842165   0.339328920773   0.339695598899   
      0.340161880128   0.340723963101   0.341377280547   0.34211654743   0.342935818154   
      0.343828552488   0.344787689559   0.345805728888   0.346874817068   0.347986838355   
      0.349133507169   0.350306460317   0.351497346727   0.352697912526   0.35390007953   
      0.35509601549   0.356278194882   0.357439449409   0.358573007907   0.359672525727   
      0.36073210411   0.361746300347   0.362710129809   0.363619061043   0.364469005264   
      0.365256301538   0.365977698921   0.366630336748   0.36721172409   0.367719719337   
      0.368152510647   0.368508597927   0.368786776837   0.368986125233   0.369105992347   
      0.379904622377   0.379866472701   0.37975213975   0.379561973305   0.3792965615   
      0.378956738483   0.378543594987   0.378058491643   0.377503074761   0.376879294281   
      0.376189423432   0.375436079566   0.374622245485   0.373751290435   0.372826989833   
      0.371853542626   0.370835585095   0.369778199842   0.368686918649   0.367567717949   
      0.366427005747   0.365271599008   0.364108690779   0.362945806683   0.361790750772   
      0.360651541183   0.359536336483   0.358453353994   0.35741078176   0.356416686126   
      0.35547891703   0.354605013236   0.353802109647   0.353076848711   0.352435297684   
      0.351882873246   0.351424274627   0.35106342613   0.350803429616   0.350646527339   
      0.350594075319   0.350646527339   0.350803429616   0.35106342613   0.351424274627   
      0.351882873246   0.352435297684   0.353076848711   0.353802109647   0.354605013236   
      0.35547891703   0.356416686126   0.35741078176   0.358453353994   0.359536336483   
      0.360651541183   0.361790750772   0.362945806683   0.364108690779   0.365271599008   
      0.366427005747   0.367567717949   0.368686918649   0.369778199842   0.370835585095   
      0.371853542626   0.372826989833   0.373751290435   0.374622245485   0.375436079566   
      0.376189423432   0.376879294281   0.377503074761   0.378058491643   0.378543594987   
      0.378956738483   0.3792965615   0.379561973305   0.37975213975   0.379866472701   
      0.394826760213   0.394791599563   0.394686217278   0.394510913814   0.39426619481   
      0.393952778333   0.393571604927   0.393123850314   0.392610940566   0.392034569501   
      0.391396717947   0.390699674449   0.389946056832   0.389138833959   0.388281346849   
      0.387377328194   0.386430919206   0.38544668261   0.38442961053   0.383385126006   
      0.38231907691   0.381237721155   0.380147702248   0.379056014538   0.377969957788   
      0.376897081142   0.375845116911   0.374821905082   0.373835309821   0.372893129621   
      0.372003003034   0.371172312093   0.370408085687   0.369716905075   0.369104813694   
      0.368577233201   0.368138887485   0.367793736093   0.367544918296   0.367394708686   
      0.367344485008   0.367394708686   0.367544918296   0.367793736093   0.368138887485   
      0.368577233201   0.369104813694   0.369716905075   0.370408085687   0.371172312093   
      0.372003003034   0.372893129621   0.373835309821   0.374821905082   0.375845116911   
      0.376897081142   0.377969957788   0.379056014538   0.380147702248   0.381237721155   
      0.38231907691   0.383385126006   0.38442961053   0.38544668261   0.386430919206   
      0.387377328194   0.388281346849   0.389138833959   0.389946056832   0.390699674449   
      0.391396717947   0.392034569501   0.392610940566   0.393123850314   0.393571604927   
      0.393952778333   0.39426619481   0.394510913814   0.394686217278   0.394791599563   
      0.413880360063   0.41384955364   0.413757214727   0.413603585702   0.41338907491   