<?xml version="1.0"?>
<VTKFile type="ImageData" version="0.1" byte_order="LittleEndian">
  <ImageData WholeExtent="0 79 0 19 0 19" Origin="0 0 0" Spacing="1 1 1">
  <Piece Extent="0 79 0 19 0 19">
    <PointData Scalars="density">
       <DataArray type="Float32" Name="bluedensity" NumberOfComponents="1" format="ascii">
      0   0   0   0   0   
      0   0   0   0   0   
      0   0   0   0   0   
      0   0   0   0   0   
      0   0   0   0   0   
      0   0   0   0   0   
      0   0   0   0   0   
      0   0   0   0   0   
      0   0   0   0   0   
      0   0   0   0   0   
      0   0   0   0   0   
      0   0   0   0   0   
      0   0   0   0   0   
      0   0   0   0   0   
      0   0   0   0   0   
      0   0   0   0   0   
      0   0   0   0   0   
      0   0   0   0   0   
      0   0   0   0   0   
      0   0   0   0   0   
      0   0   0   0   0   
      0   0   0   0   0   
      0   0   0   0   0   
      0   0   0   0   0   
      0   0   0   0   0   
      0   0   0   0   0   
      0   0   0   0   0   
      0   0   0   0   0   
      0   0   0   0   0   
      0   0   0   0   0   
      0   0   0   0   0   
      0   0   0   0   0   
      0   0   0   0   0   
      0   0   0   0   0   
      0   0   0   0   0   
      0   0   0   0   0   
      0   0   0   0   0   
      0   0   0   0   0   
      0   0   0   0   0   
      0   0   0   0   0   
      0   0   0   0   0   
      0   0   0   0   0   
      0   0   0   0   0   
      0   0   0   0   0   
      0   0   0   0   0   
      0   0   0   0   0   
      0   0   0   0   0   
      0   0   0   0   0   
      0   0   0   0   0   
      0   0   0   0   0   
      0   0   0   0   0   
      0   0   0   0   0   
      0   0   0   0   0   
      0   0   0   0   0   
      0   0   0   0   0   
      0   0   0   0   0   
      0   0   0   0   0   
      0   0   0   0   0   
      0   0   0   0   0   
      0   0   0   0   0   
      0   0   0   0   0   
      0   0   0   0   0   
      0   0   0   0   0   
      0   0   0   0   0   
      0   0   0   0   0   
      0   0   0   0   0   
      0   0   0   0   0   
      0   0   0   0   0   
      0   0   0   0   0   
      0   0   0   0   0   
      0   0   0   0   0   
      0   0   0   0   0   
      0   0   0   0   0   
      0   0   0   0   0   
      0   0   0   0   0   
      0   0   0   0   0   
      0   0   0   0   0   
      0   0   0   0   0   
      0   0   0   0   0   
      0   0   0   0   0   
      0   0   0   0   0   
      0   0   0   0   0   
      0   0   0   0   0   
      0   0   0   0   0   
      0   0   0   0   0   
      0   0   0   0   0   
      0   0   0   0   0   
      0   0   0   0   0   
      0   0   0   0   0   
      0   0   0   0   0   
      0   0   0   0   0   
      0   0   0   0   0   
      0   0   0   0   0   
      0   0   0   0   0   
      0   0   0   0   0   
      0   0   0   0   0   
      0   0   0   0   0   
      0   0   0   0   0   
      0   0   0   0   0   
      0   0   0   0   0   
      0   0   0   0   0   
      0   0   0   0   0   
      0   0   0   0   0   
      0   0   0   0   0   
      0   0   0   0   0   
      0   0   0   0   0   
      0   0   0   0   0   
      0   0   0   0   0   
      0   0   0   0   0   
      0   0   0   0   0   
      0   0   0   0   0   
      0   0   0   0   0   
      0   0   0   0   0   
      0   0   0   0   0   
      0   0   0   0   0   
      0   0   0   0   0   
      0   0   0   0   0   
      0   0   0   0   0   
      0   0   0   0   0   
      0   0   0   0   0   
      0   0   0   0   0   
      0   0   0   0   0   
      0   0   0   0   0   
      0   0   0   0   0   
      0   0   0   0   0   
      0   0   0   0   0   
      0   0   0   0   0   
      0   0   0   0   0   
      0   0   0   0   0   
      0   0   0   0   0   
      0   0   0   0   0   
      0   0   0   0   0   
      0   0   0   0   0   
      0   0   0   0   0   
      0   0   0   0   0   
      0   0   0   0   0   
      0   0   0   0   0   
      0   0   0   0   0   
      0   0   0   0   0   
      0   0   0   0   0   
      0   0   0   0   0   
      0   0   0   0   0   
      0   0   0   0   0   
      0   0   0   0   0   
      0   0   0   0   0   
      0   0   0   0   0   
      0   0   0   0   0   
      0   0   0   0   0   
      0   0   0   0   0   
      0   0   0   0   0   
      0   0   0   0   0   
      0   0   0   0   0   
      0   0   0   0   0   
      0   0   0   0   0   
      0   0   0   0   0   
      0   0   0   0   0   
      0   0   0   0   0   
      0   0   0   0   0   
      0   0   0   0   0   
      0   0   0   0   0   
      0   0   0   0   0   
      0   0   0   0   0   
      0   0   0   0   0   
      0   0   0   0   0   
      0   0   0   0   0   
      0   0   0   0   0   
      0   0   0   0   0   
      0   0   0   0   0   
      0   0   0   0   0   
      0   0   0   0   0   
      0   0   0   0   0   
      0   0   0   0   0   
      0   0   0   0   0   
      0   0   0   0   0   
      0   0   0   0   0   
      0   0   0   0   0   
      0   0   0   0   0   
      0   0   0   0   0   
      0   0   0   0   0   
      0   0   0   0   0   
      0   0   0   0   0   
      0   0   0   0   0   
      0   0   0   0   0   
      0   0   0   0   0   
      0   0   0   0   0   
      0   0   0   0   0   
      0   0   0   0   0   
      0   0   0   0   0   
      0   0   0   0   0   
      0   0   0   0   0   
      0   0   0   0   0   
      0   0   0   0   0   
      0   0   0   0   0   
      0   0   0   0   0   
      0   0   0   0   0   
      0   0   0   0   0   
      0   0   0   0   0   
      0   0   0   0   0   
      0   0   0   0   0   
      0   0   0   0   0   
      0   0   0   0   0   
      0   0   0   0   0   
      0   0   0   0   0   
      0   0   0   0   0   
      0   0   0   0   0   
      0   0   0   0   0   
      0   0   0   0   0   
      0   0   0   0   0   
      0   0   0   0   0   
      0   0   0   0   0   
      0   0   0   0   0   
      0   0   0   0   0   
      0   0   0   0   0   
      0   0   0   0   0   
      0   0   0   0   0   
      0   0   0   0   0   
      0   0   0   0   0   
      0   0   0   0   0   
      0   0   0   0   0   
      0   0   0   0   0   
      0   0   0   0   0   
      0   0   0   0   0   
      0   0   0   0   0   
      0   0   0   0   0   
      0   0   0   0   0   
      0   0   0   0   0   
      0   0   0   0   0   
      0   0   0   0   0   
      0   0   0   0   0   
      0   0   0   0   0   
      0   0   0   0   0   
      0   0   0   0   0   
      0   0   0   0   0   
      0   0   0   0   0   
      0   0   0   0   0   
      0   0   0   0   0   
      0   0   0   0   0   
      0   0   0   0   0   
      0   0   0   0   0   
      0   0   0   0   0   
      0   0   0   0   0   
      0   0   0   0   0   
      0   0   0   0   0   
      0   0   0   0   0   
      0   0   0   0   0   
      0   0   0   0   0   
      0   0   0   0   0   
      0   0   0   0   0   
      0   0   0   0   0   
      0   0   0   0   0   
      0   0   0   0   0   
      0   0   0   0   0   
      0   0   0   0   0   
      0   0   0   0   0   
      0   0   0   0   0   
      0   0   0   0   0   
      0   0   0   0   0   
      0   0   0   0   0   
      0   0   0   0   0   
      0   0   0   0   0   
      0   0   0   0   0   
      0   0   0   0   0   
      0   0   0   0   0   
      0   0   0   0   0   
      0   0   0   0   0   
      0   0   0   0   0   
      0   0   0   0   0   
      0   0   0   0   0   
      0   0   0   0   0   
      0   0   0   0   0   
      0   0   0   0   0   
      0   0   0   0   0   
      0   0   0   0   0   
      0   0   0   0   0   
      0   0   0   0   0   
      0   0   0   0   0   
      0   0   0   0   0   
      0   0   0   0   0   
      0   0   0   0   0   
      0   0   0   0   0   
      0   0   0   0   0   
      0   0   0   0   0   
      0   0   0   0   0   
      0   0   0   0   0   
      0   0   0   0   0   
      0   0   0   0   0   
      0   0   0   0   0   
      0   0   0   0   0   
      0   0   0   0   0   
      0   0   0   0   0   
      0   0   0   0   0   
      0   0   0   0   0   
      0   0   0   0   0   
      0   0   0   0   0   
      0   0   0   0   0   
      0   0   0   0   0   
      0   0   0   0   0   
      0   0   0   0   0   
      0   0   0   0   0   
      0   0   0   0   0   
      0   0   0   0   0   
      0   0   0   0   0   
      0   0   0   0   0   
      0   0   0   0   0   
      0   0   0   0   0   
      0   0   0   0   0   
      0   0   0   0   0   
      0   0   0   0   0   
      0   0   0   0   0   
      0   0   0   0   0   
      0   0   0   0   0   
      0   0   0   0   0   
      0   0   0   0   0   
      0   0   0   0   0   
      0   0   0   0   0   
      0   0   0   0   0   
      0   0   0   0   0   
      0   0   0   0   0   
      0   0   0   0   0   
      0   0   0   0   0   
      0   0   0   0   0   
      0   0   0   0   0   
      0   0   0   0   0   
      0   0   0   0   0   
      0   0   0   0   0   
      0   0   0   0   0   
      0   0   0   0   0   
      0   0   0   0   0   
      0   0   0   0   0   
      0   0   0   0   0   
      0   0   0   0   0   
      0   0   0   0   0   
      0   0   0   0   0   
      0   0   0   0   0   
      0   0   0   0   0   
      0   0   0   0   0   
      0.572531611019   0.572521803417   0.572492414745   0.572443547658   0.572375374085   
      0.572288136469   0.572182149467   0.572057802079   0.571915560162   0.571755969262   
      0.571579657688   0.57138733975   0.57117981903   0.570957991575   0.570722848852   
      0.570475480303   0.570217075298   0.569948924308   0.569672419055   0.569389051431   
      0.569100410959   0.568808180574   0.568514130531   0.568220110277   0.56792803813   
      0.567639888724   0.567357678168   0.567083447002   0.566819241063   0.56656709049   
      0.56632898718   0.566106861052   0.565902555608   0.565717803296   0.565554201247   
      0.565413187985   0.565296021715   0.565203760769   0.56513724677   0.565097090987   
      0.565083664289   0.565097090987   0.56513724677   0.565203760769   0.565296021715   
      0.565413187985   0.565554201247   0.565717803296   0.565902555608   0.566106861052   
      0.56632898718   0.56656709049   0.566819241063   0.567083447002   0.567357678168   
      0.567639888724   0.56792803813   0.568220110277   0.568514130531   0.568808180574   
      0.569100410959   0.569389051431   0.569672419055   0.569948924308   0.570217075298   
      0.570475480303   0.570722848852   0.570957991575   0.57117981903   0.57138733975   
      0.571579657688   0.571755969262   0.571915560162   0.572057802079   0.572182149467   
      0.572288136469   0.572375374085   0.572443547658   0.572492414745   0.572521803417   
      0.460378075276   0.460364467994   0.460323693321   0.46025589315   0.460161305193   
      0.460040264788   0.459893207387   0.459720671653   0.459523303108   0.459301858245   
      0.459057208962   0.458790347221   0.458502389728   0.458194582469   0.457868304875   
      0.457525073365   0.45716654401   0.456794514016   0.456410921727   0.456017844849   
      0.455617496569   0.455212219291   0.454804475741   0.454396837194   0.453991968705   
      0.453592611238   0.453201560708   0.452821644049   0.452455692521   0.452106512568   
      0.451776854691   0.451469380848   0.451186631035   0.450930989739   0.450704653043   
      0.450509597157   0.450347549176   0.450219960828   0.450127985917   0.450072462081   
      0.450053897378   0.450072462081   0.450127985917   0.450219960828   0.450347549176   
      0.450509597157   0.450704653043   0.450930989739   0.451186631035   0.451469380848   
      0.451776854691   0.452106512568   0.452455692521   0.452821644049   0.453201560708   
      0.453592611238   0.453991968705   0.454396837194   0.454804475741   0.455212219291   
      0.455617496569   0.456017844849   0.456410921727   0.456794514016   0.45716654401   
      0.457525073365   0.457868304875   0.458194582469   0.458502389728   0.458790347221   
      0.459057208962   0.459301858245   0.459523303108   0.459720671653   0.459893207387   
      0.460040264788   0.460161305193   0.46025589315   0.460323693321   0.460364467994   
      0.435141581537   0.435124004352   0.435071335679   0.43498376462   0.434861607871   
      0.43470531196   0.434515456322   0.434292757116   0.434038071688   0.433752403556   
      0.433436907755   0.433092896351   0.432721843907   0.432325392646   0.43190535702   
      0.431463727369   0.431002672335   0.430524539655   0.43003185497   0.429527318277   
      0.429013797662   0.428494319992   0.427972058273   0.427450315478   0.42693250468   
      0.426422125481   0.425922736782   0.425437926111   0.42497127581   0.424526326538   
      0.424106538649   0.423715252129   0.423355645863   0.423030697059   0.42274314174   
      0.422495437189   0.422289727246   0.422127811311   0.422011117806   0.4219406828   
      0.421917134325   0.4219406828   0.422011117806   0.422127811311   0.422289727246   
      0.422495437189   0.42274314174   0.423030697059   0.423355645863   0.423715252129   
      0.424106538649   0.424526326538   0.42497127581   0.425437926111   0.425922736782   
      0.426422125481   0.42693250468   0.427450315478   0.427972058273   0.428494319992   
      0.429013797662   0.429527318277   0.43003185497   0.430524539655   0.431002672335   
      0.431463727369   0.43190535702   0.432325392646   0.432721843907   0.433092896351   
      0.433436907755   0.433752403556   0.434038071688   0.434292757116   0.434515456322   
      0.43470531196   0.434861607871   0.434983764621   0.435071335679   0.435124004352   
      0.410149961023   0.410128463334   0.410064050615   0.409956964431   0.409807609109   
      0.40961655427   0.409384538264   0.409112472428   0.408801446013   0.408452731619   
      0.408067790936   0.407648280544   0.407196057501   0.406713184387   0.40620193347   
      0.405664789603   0.405104451445   0.404523830602   0.40392604825   0.403314428846   
      0.402692490547   0.402063932006   0.401432615285   0.40080254471   0.400177841588   
      0.399562714843   0.398961427724   0.398378260915   0.397817472463   0.397283255108   
      0.396779691698   0.396310709471   0.395880034067   0.395491144182   0.395147227813   
      0.394851141004   0.394605370024   0.394411997779   0.394272675236   0.394188598499   
      0.394160492041   0.394188598499   0.394272675236   0.394411997779   0.394605370024   
      0.394851141004   0.395147227813   0.395491144182   0.395880034067   0.396310709471   
      0.396779691698   0.397283255108   0.397817472463   0.398378260915   0.398961427724   
      0.399562714843   0.400177841588   0.40080254471   0.401432615285   0.402063932006   
      0.402692490547   0.403314428846   0.40392604825   0.404523830602   0.405104451445   
      0.405664789603   0.40620193347   0.406713184387   0.407196057501   0.407648280544   
      0.408067790936   0.408452731619   0.408801446013   0.409112472428   0.409384538264   
      0.40961655427   0.409807609109   0.409956964431   0.410064050615   0.410128463334   
      0.390556515846   0.390532096233   0.390458932923   0.390337313039   0.39016771688   
      0.389950820505   0.389687499231   0.389378831907   0.389026105819   0.388630822013   
      0.388194700786   0.387719687077   0.387207955413   0.386661914066   0.386084208007   
      0.385477720255   0.384845571159   0.384191115204   0.383517934874   0.382829831203   
      0.382130810645   0.381425067971   0.38071696501   0.380011005122   0.37931180344   
      0.378624053016   0.377952487175   0.377301838493   0.376676794939   0.376081953855   
      0.37552177453   0.375000530198   0.37452226034   0.374090724194   0.373709356366   
      0.373381225393   0.373108996076   0.372894896303   0.372740689002   0.372647649763   
      0.372616550542   0.372647649763   0.372740689002   0.372894896303   0.373108996076   
      0.373381225393   0.373709356366   0.374090724194   0.37452226034   0.375000530198   
      0.37552177453   0.376081953855   0.376676794939   0.377301838493   0.377952487175   
      0.378624053016   0.37931180344   0.380011005122   0.38071696501   0.381425067971   
      0.382130810645   0.382829831203   0.383517934874   0.384191115204   0.384845571159   
      0.385477720255   0.386084208007   0.386661914066   0.387207955413   0.387719687077   
      0.388194700786   0.388630822013   0.389026105819   0.389378831907   0.389687499231   
      0.389950820505   0.39016771688   0.390337313039   0.390458932923   0.390532096233   
      0.375264558711   0.375238180028   0.375159151439   0.375027795844   0.374844653123   
      0.374610482631   0.374326266555   0.373993213977   0.373612765466   0.373186597959   
      0.37271662966   0.372205024639   0.371654196772   0.371066812623   0.370445792856   
      0.369794311723   0.369115794186   0.368413910231   0.367692565954   0.366955891061   
      0.36620822246   0.365454083735   0.364698160382   0.363945270806   0.363200333201   
      0.362468328593   0.361754260419   0.361063111184   0.360399796812   0.35976911943   
      0.359175719373   0.35862402724   0.358118216855   0.357662159963   0.35725938346   
      0.356913029887   0.356625821865   0.356400031028   0.356237451965   0.356139381544   
      0.356106603936   0.356139381544   0.356237451965   0.356400031028   0.356625821865   
      0.356913029887   0.35725938346   0.357662159963   0.358118216855   0.35862402724   
      0.359175719373   0.35976911943   0.360399796812   0.361063111184   0.361754260419   
      0.362468328593   0.363200333201   0.363945270806   0.364698160382   0.365454083735   
      0.36620822246   0.366955891061   0.367692565954   0.368413910231   0.369115794186   
      0.369794311723   0.370445792856   0.371066812623   0.371654196772   0.372205024639   
      0.37271662966   0.373186597959   0.373612765466   0.373993213977   0.374326266555   
      0.374610482631   0.374844653123   0.375027795844   0.375159151439   0.375238180028   
      0.364277868858   0.364250313117   0.364167761862   0.364030563492   0.363839300297   
      0.363594790807   0.363298092939   0.362950507752   0.362553583629   0.36210912062   
      0.361619174655   0.361086061272   0.360512358501   0.359900908467   0.359254817295   
      0.358577452855   0.357872439897   0.35714365217   0.35639520111   0.35563142078   
      0.354856848817   0.354076203219   0.353294354948   0.352516296428   0.351747106172   
      0.350991909883   0.350255838522   0.349543983933   0.348861352723   0.34821281915   
      0.347603077821   0.34703659701   0.346517573387   0.346049888912   0.345637070575   
      0.345282253589   0.344988148568   0.344757013101   0.344590628084   0.344490279064   
      0.344456742785   0.344490279064   0.344590628084   0.344757013101   0.344988148568   
      0.345282253589   0.345637070575   0.346049888912   0.346517573387   0.34703659701   
      0.347603077821   0.34821281915   0.348861352723   0.349543983933   0.350255838522   
      0.350991909883   0.351747106172   0.352516296428   0.353294354948   0.354076203219   
      0.354856848817   0.35563142078   0.35639520111   0.35714365217   0.357872439897   
      0.358577452855   0.359254817295   0.359900908467   0.360512358501   0.361086061272   
      0.361619174655   0.36210912062   0.362553583629   0.362950507752   0.363298092939   
      0.363594790807   0.363839300297   0.364030563492   0.364167761862   0.364250313117   
      0.35725373944   0.357225546207   0.357141087895   0.357000729137   0.356805079194   
      0.356554994174   0.356251579978   0.355896195789   0.355490457891   0.355036243559   
      0.354535694684   0.353991220808   0.353405501143   0.352781485173   0.352122391388   
      0.351431703697   0.350713165083   0.349970768093   0.349208741787   0.348431534874   
      0.347643794802   0.346850342729   0.346056144394   0.345266277029   0.344485892634   
      0.343720178009   0.342974312107   0.342253421347   0.341562533606   0.340906531673   
      0.340290106954   0.339717714203   0.339193528033   0.338721401868   0.33830482995   
      0.337946912896   0.337650327213   0.337417299103   0.337249582777   0.337148443463   
      0.337114645193   0.337148443463   0.337249582777   0.337417299103   0.337650327213   
      0.337946912896   0.33830482995   0.338721401868   0.339193528033   0.339717714203   
      0.340290106954   0.340906531673   0.341562533606   0.342253421347   0.342974312107   
      0.343720178009   0.344485892634   0.345266277029   0.346056144394   0.346850342729   
      0.347643794802   0.348431534874   0.349208741787   0.349970768093   0.350713165083   
      0.351431703697   0.352122391388   0.352781485173   0.353405501143   0.353991220808   
      0.354535694684   0.355036243559   0.355490457891   0.355896195789   0.356251579978   
      0.356554994174   0.356805079194   0.357000729137   0.357141087895   0.357225546207   
      0.353848098593   0.353819631419   0.353734353917   0.353592638597   0.353395107803   
      0.353142635849   0.352836351853   0.352477643067   0.352068158494   0.35160981251   
      0.351104788174   0.35055553986   0.34996479481   0.349335553184   0.348671086158   
      0.347974931619   0.347250887034   0.346502999076   0.345735549673   0.344953038193   
      0.344160159605   0.343361778531   0.342562899251   0.341768631874   0.340984154971   
      0.340214675155   0.33946538417   0.338741414161   0.338047791858   0.337389392464   
      0.336770894023   0.336196733034   0.335671062015   0.335197709675   0.334780144207   
      0.334421440194   0.334124249433   0.333890775986   0.333722755592   0.33362143959   
      0.333587583398   0.33362143959   0.333722755592   0.333890775986   0.334124249433   
      0.334421440194   0.334780144207   0.335197709675   0.335671062015   0.336196733034   
      0.336770894023   0.337389392464   0.338047791858   0.338741414161   0.33946538417   
      0.340214675155   0.340984154971   0.341768631874   0.342562899251   0.343361778531   
      0.344160159605   0.344953038193   0.345735549673   0.346502999076   0.347250887034   
      0.347974931619   0.348671086158   0.349335553184   0.34996479481   0.35055553986   
      0.351104788174   0.35160981251   0.352068158494   0.352477643067   0.352836351853   
      0.353142635849   0.353395107803   0.353592638597   0.353734353917   0.353819631419   
      0.353848098593   0.353819631419   0.353734353917   0.353592638597   0.353395107803   
      0.353142635849   0.352836351853   0.352477643067   0.352068158494   0.35160981251   
      0.351104788174   0.35055553986   0.34996479481   0.349335553184   0.348671086158   
      0.347974931619   0.347250887034   0.346502999076   0.345735549673   0.344953038193   
      0.344160159605   0.343361778531   0.342562899251   0.341768631874   0.340984154971   
      0.340214675155   0.33946538417   0.338741414161   0.338047791858   0.337389392464   
      0.336770894023   0.336196733034   0.335671062015   0.335197709675   0.334780144207   
      0.334421440194   0.334124249433   0.333890775986   0.333722755592   0.33362143959   
      0.333587583398   0.33362143959   0.333722755592   0.333890775986   0.334124249433   
      0.334421440194   0.334780144207   0.335197709675   0.335671062015   0.336196733034   
      0.336770894023   0.337389392464   0.338047791858   0.338741414161   0.33946538417   
      0.340214675155   0.340984154971   0.341768631874   0.342562899251   0.343361778531   
      0.344160159605   0.344953038193   0.345735549673   0.346502999076   0.347250887034   
      0.347974931619   0.348671086158   0.349335553184   0.34996479481   0.35055553986   
      0.351104788174   0.35160981251   0.352068158494   0.352477643067   0.352836351853   
      0.353142635849   0.353395107803   0.353592638597   0.353734353917   0.353819631419   
      0.35725373944   0.357225546207   0.357141087895   0.357000729137   0.356805079194   
      0.356554994174   0.356251579978   0.355896195789   0.355490457891   0.355036243559   
      0.354535694684   0.353991220808   0.353405501143   0.352781485173   0.352122391388   
      0.351431703697   0.350713165083   0.349970768093   0.349208741787   0.348431534874   
      0.347643794802   0.346850342729   0.346056144394   0.345266277029   0.344485892634   
      0.343720178009   0.342974312107   0.342253421347   0.341562533606   0.340906531673   
      0.340290106954   0.339717714203   0.339193528033   0.338721401868   0.33830482995   
      0.337946912896   0.337650327213   0.337417299103   0.337249582777   0.337148443463   
      0.337114645193   0.337148443463   0.337249582777   0.337417299103   0.337650327213   
      0.337946912896   0.33830482995   0.338721401868   0.339193528033   0.339717714203   
      0.340290106954   0.340906531673   0.341562533606   0.342253421347   0.342974312107   
      0.343720178009   0.344485892634   0.345266277029   0.346056144394   0.346850342729   
      0.347643794802   0.348431534874   0.349208741787   0.349970768093   0.350713165083   
      0.351431703697   0.352122391388   0.352781485173   0.353405501143   0.353991220808   
      0.354535694684   0.355036243559   0.355490457891   0.355896195789   0.356251579978   
      0.356554994174   0.356805079194   0.357000729137   0.357141087895   0.357225546207   
      0.364277868858   0.364250313117   0.364167761862   0.364030563492   0.363839300297   
      0.363594790807   0.363298092939   0.362950507752   0.362553583629   0.36210912062   
      0.361619174655   0.361086061272   0.360512358501   0.359900908467   0.359254817295   
      0.358577452855   0.357872439897   0.35714365217   0.35639520111   0.35563142078   
      0.354856848817   0.354076203219   0.353294354948   0.352516296428   0.351747106172   
      0.350991909883   0.350255838522   0.349543983933   0.348861352723   0.34821281915   
      0.347603077821   0.34703659701   0.346517573387   0.346049888912   0.345637070575   
      0.345282253589   0.344988148568   0.344757013101   0.344590628084   0.344490279064   
      0.344456742785   0.344490279064   0.344590628084   0.344757013101   0.344988148568   
      0.345282253589   0.345637070575   0.346049888912   0.346517573387   0.34703659701   
      0.347603077821   0.34821281915   0.348861352723   0.349543983933   0.350255838522   
      0.350991909883   0.351747106172   0.352516296428   0.353294354948   0.354076203219   
      0.354856848817   0.35563142078   0.35639520111   0.35714365217   0.357872439897   
      0.358577452855   0.359254817295   0.359900908467   0.360512358501   0.361086061272   
      0.361619174655   0.36210912062   0.362553583629   0.362950507752   0.363298092939   
      0.363594790807   0.363839300297   0.364030563492   0.364167761862   0.364250313117   
      0.375264558711   0.375238180028   0.375159151439   0.375027795844   0.374844653123   
      0.374610482631   0.374326266555   0.373993213977   0.373612765466   0.373186597959   
      0.37271662966   0.372205024639   0.371654196772   0.371066812623   0.370445792856   
      0.369794311723   0.369115794186   0.368413910231   0.367692565954   0.366955891061   
      0.36620822246   0.365454083735   0.364698160382   0.363945270806   0.363200333201   
      0.362468328593   0.361754260419   0.361063111184   0.360399796812   0.35976911943   
      0.359175719373   0.35862402724   0.358118216855   0.357662159963   0.35725938346   
      0.356913029887   0.356625821865   0.356400031028   0.356237451965   0.356139381544   
      0.356106603936   0.356139381544   0.356237451965   0.356400031028   0.356625821865   
      0.356913029887   0.35725938346   0.357662159963   0.358118216855   0.35862402724   
      0.359175719373   0.35976911943   0.360399796812   0.361063111184   0.361754260419   
      0.362468328593   0.363200333201   0.363945270806   0.364698160382   0.365454083735   
      0.36620822246   0.366955891061   0.367692565954   0.368413910231   0.369115794186   
      0.369794311723   0.370445792856   0.371066812623   0.371654196772   0.372205024639   
      0.37271662966   0.373186597959   0.373612765466   0.373993213977   0.374326266555   
      0.374610482631   0.374844653123   0.375027795844   0.375159151439   0.375238180028   
      0.390556515846   0.390532096233   0.390458932923   0.390337313039   0.39016771688   
      0.389950820505   0.389687499231   0.389378831907   0.389026105819   0.388630822013   
      0.388194700786   0.387719687077   0.387207955413   0.386661914066   0.386084208007   
      0.385477720255   0.384845571159   0.384191115204   0.383517934874   0.382829831203   
      0.382130810645   0.381425067971   0.38071696501   0.380011005122   0.37931180344   
      0.378624053016   0.377952487175   0.377301838493   0.376676794939   0.376081953855   
      0.37552177453   0.375000530198   0.37452226034   0.374090724194   0.373709356366   
      0.373381225393   0.373108996076   0.372894896303   0.372740689002   0.372647649763   
      0.372616550542   0.372647649763   0.372740689002   0.372894896303   0.373108996076   
      0.373381225393   0.373709356366   0.374090724194   0.37452226034   0.375000530198   
      0.37552177453   0.376081953855   0.376676794939   0.377301838493   0.377952487175   
      0.378624053016   0.37931180344   0.380011005122   0.38071696501   0.381425067971   
      0.382130810645   0.382829831203   0.383517934874   0.384191115204   0.384845571159   
      0.385477720255   0.386084208007   0.386661914066   0.387207955413   0.387719687077   
      0.388194700786   0.388630822013   0.389026105819   0.389378831907   0.389687499231   
      0.389950820505   0.39016771688   0.390337313039   0.390458932923   0.390532096233   
      0.410149961023   0.410128463334   0.410064050615   0.409956964431   0.409807609109   