<?xml version="1.0"?>
<VTKFile type="ImageData" version="0.1" byte_order="LittleEndian">
  <ImageData WholeExtent="0 79 0 19 0 19" Origin="0 0 0" Spacing="1 1 1">
  <Piece Extent="0 79 0 19 0 19">
    <PointData Scalars="density">
       <DataArray type="Float32" Name="bluedensity" NumberOfComponents="1" format="ascii">
      0   0   0   0   0   
      0   0   0   0   0   
      0   0   0   0   0   
      0   0   0   0   0   
      0   0   0   0   0   
      0   0   0   0   0   
      0   0   0   0   0   
      0   0   0   0   0   
      0   0   0   0   0   
      0   0   0   0   0   
      0   0   0   0   0   
      0   0   0   0   0   
      0   0   0   0   0   
      0   0   0   0   0   
      0   0   0   0   0   
      0   0   0   0   0   
      0   0   0   0   0   
      0   0   0   0   0   
      0   0   0   0   0   
      0   0   0   0   0   
      0   0   0   0   0   
      0   0   0   0   0   
      0   0   0   0   0   
      0   0   0   0   0   
      0   0   0   0   0   
      0   0   0   0   0   
      0   0   0   0   0   
      0   0   0   0   0   
      0   0   0   0   0   
      0   0   0   0   0   
      0   0   0   0   0   
      0   0   0   0   0   
      0   0   0   0   0   
      0   0   0   0   0   
      0   0   0   0   0   
      0   0   0   0   0   
      0   0   0   0   0   
      0   0   0   0   0   
      0   0   0   0   0   
      0   0   0   0   0   
      0   0   0   0   0   
      0   0   0   0   0   
      0   0   0   0   0   
      0   0   0   0   0   
      0   0   0   0   0   
      0   0   0   0   0   
      0   0   0   0   0   
      0   0   0   0   0   
      0   0   0   0   0   
      0   0   0   0   0   
      0   0   0   0   0   
      0   0   0   0   0   
      0   0   0   0   0   
      0   0   0   0   0   
      0   0   0   0   0   
      0   0   0   0   0   
      0   0   0   0   0   
      0   0   0   0   0   
      0   0   0   0   0   
      0   0   0   0   0   
      0   0   0   0   0   
      0   0   0   0   0   
      0   0   0   0   0   
      0   0   0   0   0   
      0   0   0   0   0   
      0   0   0   0   0   
      0   0   0   0   0   
      0   0   0   0   0   
      0   0   0   0   0   
      0   0   0   0   0   
      0   0   0   0   0   
      0   0   0   0   0   
      0   0   0   0   0   
      0   0   0   0   0   
      0   0   0   0   0   
      0   0   0   0   0   
      0   0   0   0   0   
      0   0   0   0   0   
      0   0   0   0   0   
      0   0   0   0   0   
      0   0   0   0   0   
      0   0   0   0   0   
      0   0   0   0   0   
      0   0   0   0   0   
      0   0   0   0   0   
      0   0   0   0   0   
      0   0   0   0   0   
      0   0   0   0   0   
      0   0   0   0   0   
      0   0   0   0   0   
      0   0   0   0   0   
      0   0   0   0   0   
      0   0   0   0   0   
      0   0   0   0   0   
      0   0   0   0   0   
      0   0   0   0   0   
      0   0   0   0   0   
      0   0   0   0   0   
      0   0   0   0   0   
      0   0   0   0   0   
      0   0   0   0   0   
      0   0   0   0   0   
      0   0   0   0   0   
      0   0   0   0   0   
      0   0   0   0   0   
      0   0   0   0   0   
      0   0   0   0   0   
      0   0   0   0   0   
      0   0   0   0   0   
      0   0   0   0   0   
      0   0   0   0   0   
      0   0   0   0   0   
      0   0   0   0   0   
      0   0   0   0   0   
      0   0   0   0   0   
      0   0   0   0   0   
      0   0   0   0   0   
      0   0   0   0   0   
      0   0   0   0   0   
      0   0   0   0   0   
      0   0   0   0   0   
      0   0   0   0   0   
      0   0   0   0   0   
      0   0   0   0   0   
      0   0   0   0   0   
      0   0   0   0   0   
      0   0   0   0   0   
      0   0   0   0   0   
      0   0   0   0   0   
      0   0   0   0   0   
      0   0   0   0   0   
      0   0   0   0   0   
      0   0   0   0   0   
      0   0   0   0   0   
      0   0   0   0   0   
      0   0   0   0   0   
      0   0   0   0   0   
      0   0   0   0   0   
      0   0   0   0   0   
      0   0   0   0   0   
      0   0   0   0   0   
      0   0   0   0   0   
      0   0   0   0   0   
      0   0   0   0   0   
      0   0   0   0   0   
      0   0   0   0   0   
      0   0   0   0   0   
      0   0   0   0   0   
      0   0   0   0   0   
      0   0   0   0   0   
      0   0   0   0   0   
      0   0   0   0   0   
      0   0   0   0   0   
      0   0   0   0   0   
      0   0   0   0   0   
      0   0   0   0   0   
      0   0   0   0   0   
      0   0   0   0   0   
      0   0   0   0   0   
      0   0   0   0   0   
      0   0   0   0   0   
      0   0   0   0   0   
      0   0   0   0   0   
      0   0   0   0   0   
      0   0   0   0   0   
      0   0   0   0   0   
      0   0   0   0   0   
      0   0   0   0   0   
      0   0   0   0   0   
      0   0   0   0   0   
      0   0   0   0   0   
      0   0   0   0   0   
      0   0   0   0   0   
      0   0   0   0   0   
      0   0   0   0   0   
      0   0   0   0   0   
      0   0   0   0   0   
      0   0   0   0   0   
      0   0   0   0   0   
      0   0   0   0   0   
      0   0   0   0   0   
      0   0   0   0   0   
      0   0   0   0   0   
      0   0   0   0   0   
      0   0   0   0   0   
      0   0   0   0   0   
      0   0   0   0   0   
      0   0   0   0   0   
      0   0   0   0   0   
      0   0   0   0   0   
      0   0   0   0   0   
      0   0   0   0   0   
      0   0   0   0   0   
      0   0   0   0   0   
      0   0   0   0   0   
      0   0   0   0   0   
      0   0   0   0   0   
      0   0   0   0   0   
      0   0   0   0   0   
      0   0   0   0   0   
      0   0   0   0   0   
      0   0   0   0   0   
      0   0   0   0   0   
      0   0   0   0   0   
      0   0   0   0   0   
      0   0   0   0   0   
      0   0   0   0   0   
      0   0   0   0   0   
      0   0   0   0   0   
      0   0   0   0   0   
      0   0   0   0   0   
      0   0   0   0   0   
      0   0   0   0   0   
      0   0   0   0   0   
      0   0   0   0   0   
      0   0   0   0   0   
      0   0   0   0   0   
      0   0   0   0   0   
      0   0   0   0   0   
      0   0   0   0   0   
      0   0   0   0   0   
      0   0   0   0   0   
      0   0   0   0   0   
      0   0   0   0   0   
      0   0   0   0   0   
      0   0   0   0   0   
      0   0   0   0   0   
      0   0   0   0   0   
      0   0   0   0   0   
      0   0   0   0   0   
      0   0   0   0   0   
      0   0   0   0   0   
      0   0   0   0   0   
      0   0   0   0   0   
      0   0   0   0   0   
      0   0   0   0   0   
      0   0   0   0   0   
      0   0   0   0   0   
      0   0   0   0   0   
      0   0   0   0   0   
      0   0   0   0   0   
      0   0   0   0   0   
      0   0   0   0   0   
      0   0   0   0   0   
      0   0   0   0   0   
      0   0   0   0   0   
      0   0   0   0   0   
      0   0   0   0   0   
      0   0   0   0   0   
      0   0   0   0   0   
      0   0   0   0   0   
      0   0   0   0   0   
      0   0   0   0   0   
      0   0   0   0   0   
      0   0   0   0   0   
      0   0   0   0   0   
      0   0   0   0   0   
      0   0   0   0   0   
      0   0   0   0   0   
      0   0   0   0   0   
      0   0   0   0   0   
      0   0   0   0   0   
      0   0   0   0   0   
      0   0   0   0   0   
      0   0   0   0   0   
      0   0   0   0   0   
      0   0   0   0   0   
      0   0   0   0   0   
      0   0   0   0   0   
      0   0   0   0   0   
      0   0   0   0   0   
      0   0   0   0   0   
      0   0   0   0   0   
      0   0   0   0   0   
      0   0   0   0   0   
      0   0   0   0   0   
      0   0   0   0   0   
      0   0   0   0   0   
      0   0   0   0   0   
      0   0   0   0   0   
      0   0   0   0   0   
      0   0   0   0   0   
      0   0   0   0   0   
      0   0   0   0   0   
      0   0   0   0   0   
      0   0   0   0   0   
      0   0   0   0   0   
      0   0   0   0   0   
      0   0   0   0   0   
      0   0   0   0   0   
      0   0   0   0   0   
      0   0   0   0   0   
      0   0   0   0   0   
      0   0   0   0   0   
      0   0   0   0   0   
      0   0   0   0   0   
      0   0   0   0   0   
      0   0   0   0   0   
      0   0   0   0   0   
      0   0   0   0   0   
      0   0   0   0   0   
      0   0   0   0   0   
      0   0   0   0   0   
      0   0   0   0   0   
      0   0   0   0   0   
      0   0   0   0   0   
      0   0   0   0   0   
      0   0   0   0   0   
      0   0   0   0   0   
      0   0   0   0   0   
      0   0   0   0   0   
      0   0   0   0   0   
      0   0   0   0   0   
      0   0   0   0   0   
      0   0   0   0   0   
      0   0   0   0   0   
      0   0   0   0   0   
      0   0   0   0   0   
      0   0   0   0   0   
      0   0   0   0   0   
      0   0   0   0   0   
      0   0   0   0   0   
      0   0   0   0   0   
      0   0   0   0   0   
      0   0   0   0   0   
      0   0   0   0   0   
      0   0   0   0   0   
      0   0   0   0   0   
      0   0   0   0   0   
      0   0   0   0   0   
      0   0   0   0   0   
      0   0   0   0   0   
      0   0   0   0   0   
      0   0   0   0   0   
      0   0   0   0   0   
      0   0   0   0   0   
      0.571551897922   0.571544731367   0.571523261955   0.57148758053   0.571437838787   
      0.571374249687   0.571297088009   0.571206691022   0.571103459219   0.570987857093   
      0.570860413879   0.570721724224   0.570572448691   0.570413314041   0.57024511319   
      0.570068704774   0.569885012199   0.569695022108   0.569499782144   0.569300397942   
      0.569098029246   0.568893885074   0.5686892179   0.568485316771   0.568283499377   
      0.568085103064   0.567891474838   0.567703960425   0.567523892498   0.567352578214   
      0.567191286224   0.567041233373   0.566903571299   0.566779373207   0.566669621057   
      0.566575193456   0.566496854504   0.56643524386   0.566390868256   0.566364094675   
      0.566355145342   0.566364094675   0.566390868256   0.56643524386   0.566496854504   
      0.566575193456   0.566669621057   0.566779373207   0.566903571299   0.567041233373   
      0.567191286224   0.567352578214   0.567523892498   0.567703960425   0.567891474838   
      0.568085103064   0.568283499377   0.568485316771   0.5686892179   0.568893885074   
      0.569098029246   0.569300397942   0.569499782144   0.569695022108   0.569885012199   
      0.570068704774   0.57024511319   0.570413314041   0.570572448691   0.570721724224   
      0.570860413879   0.570987857093   0.571103459219   0.571206691022   0.571297088009   
      0.571374249687   0.571437838787   0.57148758053   0.571523261955   0.571544731367   
      0.459000185876   0.458990241065   0.458960448602   0.458910934518   0.458841909281   
      0.45875366841   0.458646593272   0.458521152063   0.458377900878   0.458217484829   
      0.458040639133   0.457848190067   0.4576410557   0.457420246292   0.457186864231   
      0.456942103385   0.45668724774   0.456423669187   0.456152824317   0.45587625012   
      0.455595558445   0.455312429151   0.455028601855   0.454745866231   0.45446605086   
      0.454191010628   0.453922612766   0.453662721611   0.45341318227   0.453175803364   
      0.452952339113   0.452744471023   0.452553789516   0.452381775813   0.452229784453   
      0.452099026787   0.451990555815   0.451905252703   0.45184381528   0.451806748798   
      0.45179435916   0.451806748798   0.45184381528   0.451905252703   0.451990555815   
      0.452099026787   0.452229784453   0.452381775813   0.452553789516   0.452744471023   
      0.452952339113   0.453175803364   0.45341318227   0.453662721611   0.453922612766   
      0.454191010628   0.45446605086   0.454745866231   0.455028601855   0.455312429151   
      0.455595558445   0.45587625012   0.456152824317   0.456423669187   0.45668724774   
      0.456942103385   0.457186864231   0.457420246292   0.4576410557   0.457848190067   
      0.458040639133   0.458217484829   0.458377900878   0.458521152063   0.458646593272   
      0.45875366841   0.458841909281   0.458910934518   0.458960448602   0.458990241065   
      0.433350471226   0.433337649706   0.43329924038   0.433235409096   0.433146432747   
      0.433032699967   0.432894712042   0.432733083994   0.432548545765   0.432341943406   
      0.432114240177   0.431866517447   0.431599975248   0.431315932365   0.431015825777   
      0.430701209331   0.430373751446   0.43003523171   0.429687536207   0.429332651417   
      0.428972656578   0.428609714382   0.428246059956   0.427883988059   0.427525838523   
      0.427173979971   0.426830791923   0.426498645434   0.426179882476   0.425876794323   
      0.425591599238   0.42532641982   0.425083260372   0.42486398473   0.424670294931   
      0.424503711183   0.424365553517   0.424256925519   0.424178700501   0.424131510405   
      0.424115737693   0.424131510405   0.424178700501   0.424256925519   0.424365553517   
      0.424503711183   0.424670294931   0.42486398473   0.425083260372   0.42532641982   
      0.425591599238   0.425876794323   0.426179882476   0.426498645434   0.426830791923   
      0.427173979971   0.427525838523   0.427883988059   0.428246059956   0.428609714382   
      0.428972656578   0.429332651417   0.429687536207   0.43003523171   0.430373751446   
      0.430701209331   0.431015825777   0.431315932365   0.431599975248   0.431866517447   
      0.432114240177   0.432341943406   0.432548545765   0.432733083994   0.432894712042   
      0.433032699967   0.433146432747   0.433235409096   0.43329924038   0.433337649706   
      0.407951186477   0.407935548784   0.407888705008   0.407810863195   0.407702370564   
      0.407563714175   0.407395521804   0.407198562949   0.406973749879   0.406722138633   
      0.40644492982   0.406143469106   0.405819247224   0.405473899325   0.405109203519   
      0.404727078396   0.404329579363   0.403918893608   0.403497333516   0.403067328396   
      0.402631414381   0.402192222407   0.401752464206   0.401314916309   0.400882402078   
      0.400457771871   0.400043881471   0.399643568994   0.399259630526   0.398894794799   
      0.398551697275   0.398232854019   0.397940635804   0.397677242873   0.397444680841   
      0.397244738151   0.397078965545   0.396948657932   0.396854839022   0.39679824904   
      0.396779335756   0.39679824904   0.396854839022   0.396948657932   0.397078965545   
      0.397244738151   0.397444680841   0.397677242873   0.397940635804   0.398232854019   
      0.398551697275   0.398894794799   0.399259630526   0.399643568994   0.400043881471   
      0.400457771871   0.400882402078   0.401314916309   0.401752464206   0.402192222407   
      0.402631414381   0.403067328396   0.403497333516   0.403918893608   0.404329579363   
      0.404727078396   0.405109203519   0.405473899325   0.405819247224   0.406143469106   
      0.40644492982   0.406722138633   0.406973749879   0.407198562949   0.407395521804   
      0.407563714175   0.407702370564   0.407810863195   0.407888705008   0.407935548784   
      0.388054030543   0.388036321368   0.387983274701   0.38789513324   0.387772301863   
      0.387615348178   0.387425003197   0.387202162079   0.386947884829   0.386663396843   
      0.386350089148   0.386009518198   0.385643405037   0.385253633659   0.38484224837   
      0.384411449958   0.383963590487   0.383501166525   0.383026810644   0.382543281055   
      0.382053449261   0.381560285653   0.381066843021   0.380576238009   0.380091630569   
      0.379616201564   0.379153128702   0.378705561041   0.378276592369   0.37786923381   
      0.377486386019   0.377130811411   0.376805106839   0.376511677173   0.376252710231   
      0.376030153484   0.375845692948   0.375700734642   0.375596388926   0.375533458029   
      0.375512426968   0.375533458029   0.375596388926   0.375700734642   0.375845692948   
      0.376030153484   0.376252710231   0.376511677173   0.376805106839   0.377130811411   
      0.377486386019   0.37786923381   0.378276592369   0.378705561041   0.379153128702   
      0.379616201564   0.380091630569   0.380576238009   0.381066843021   0.381560285653   
      0.382053449261   0.382543281055   0.383026810644   0.383501166525   0.383963590487   
      0.384411449958   0.38484224837   0.385253633659   0.385643405037   0.386009518198   
      0.386350089148   0.386663396843   0.386947884829   0.387202162079   0.387425003197   
      0.387615348178   0.387772301863   0.38789513324   0.387983274701   0.388036321368   
      0.372558623167   0.372539547402   0.372482409591   0.372387478261   0.372255201235   
      0.372086205979   0.371881300035   0.371641471403   0.37136788881   0.371061901699   
      0.370725039821   0.37035901224   0.369965705595   0.369547181406   0.369105672251   
      0.368643576613   0.368163452208   0.36766800763   0.367160092152   0.366642683581   
      0.366118874051   0.365591853744   0.365064892521   0.364541319535   0.364024500932   
      0.36351781582   0.363024630723   0.362548272803   0.362092002174   0.361658983668   
      0.361252258455   0.360874715908   0.360529066174   0.360217813829   0.359943233064   
      0.359707344778   0.359511895933   0.359358341513   0.359247829362   0.359181188135   
      0.359158918559   0.359181188135   0.359247829362   0.359358341513   0.359511895933   
      0.359707344778   0.359943233064   0.360217813829   0.360529066174   0.360874715908   
      0.361252258455   0.361658983668   0.362092002174   0.362548272803   0.363024630723   
      0.36351781582   0.364024500932   0.364541319535   0.365064892521   0.365591853744   
      0.366118874051   0.366642683581   0.367160092152   0.36766800763   0.368163452208   
      0.368643576613   0.369105672251   0.369547181406   0.369965705595   0.37035901224   
      0.370725039821   0.371061901699   0.37136788881   0.371641471403   0.371881300035   
      0.372086205979   0.372255201235   0.372387478261   0.372482409591   0.372539547402   
      0.361449887134   0.36143000736   0.361370463371   0.361271541218   0.361133717798   
      0.360957661045   0.360744230085   0.360494475297   0.360209638147   0.359891150671   
      0.359540634451   0.359159898911   0.358750938757   0.358315930371   0.35785722696   
      0.357377352287   0.356878992789   0.356364987943   0.355838318738   0.355302094147   
      0.354759535565   0.354213959167   0.353668756259   0.353127371688   0.352593280473   
      0.352069962861   0.351560878056   0.35106943692   0.350598973993   0.350152719197   
      0.349733769611   0.349345061718   0.348989344529   0.348669153968   0.348386788884   
      0.348144289049   0.347943415439   0.34778563308   0.347672096689   0.347603639312   
      0.347580764096   0.347603639312   0.347672096689   0.34778563308   0.347943415439   
      0.348144289049   0.348386788884   0.348669153968   0.348989344529   0.349345061718   
      0.349733769611   0.350152719197   0.350598973993   0.35106943692   0.351560878056   
      0.352069962861   0.352593280473   0.353127371688   0.353668756259   0.354213959167   
      0.354759535565   0.355302094147   0.355838318738   0.356364987943   0.356878992789   
      0.357377352287   0.35785722696   0.358315930371   0.358750938757   0.359159898911   
      0.359540634451   0.359891150671   0.360209638147   0.360494475297   0.360744230085   
      0.360957661045   0.361133717798   0.361271541218   0.361370463371   0.36143000736   
      0.354359813949   0.354339509058   0.354278693295   0.354177663403   0.354036914016   
      0.353857137697   0.353639224901   0.353384263771   0.353093539651   0.352768534171   
      0.352410923762   0.352022577419   0.351605553539   0.351162095632   0.350694626737   
      0.350205742343   0.349698201662   0.349174917103   0.348638941827   0.34809345531   
      0.347541746873   0.346987197193   0.346433257854   0.345883429063   0.345341235692   
      0.344810201894   0.344293824529   0.343795545752   0.343318725081   0.342866611331   
      0.342442314783   0.342048779986   0.341688759566   0.341364789387   0.341079165434   
      0.340833922681   0.340630816257   0.340471305116   0.340356538413   0.340287344757   
      0.340264224443   0.340287344757   0.340356538413   0.340471305116   0.340630816257   
      0.340833922681   0.341079165434   0.341364789387   0.341688759566   0.342048779986   
      0.342442314783   0.342866611331   0.343318725081   0.343795545752   0.344293824529   
      0.344810201894   0.345341235692   0.345883429063   0.346433257854   0.346987197193   
      0.347541746873   0.34809345531   0.348638941827   0.349174917103   0.349698201662   
      0.350205742343   0.350694626737   0.351162095632   0.351605553539   0.352022577419   
      0.352410923762   0.352768534171   0.353093539651   0.353384263771   0.353639224901   
      0.353857137697   0.354036914016   0.354177663403   0.354278693295   0.354339509058   
      0.350925904115   0.350905420393   0.35084406982   0.350742154187   0.350600176484   
      0.350418840867   0.350199052511   0.349941917268   0.349648740994   0.349321028435   
      0.348960481486   0.348568996669   0.348148661655   0.347701750614   0.347230718245   
      0.34673819228   0.346226964317   0.345699978837   0.345160320301   0.344611198249   
      0.344055930397   0.343497923721   0.342940653648   0.342387641444   0.341842430014   
      0.341308558335   0.340789534805   0.34028880983   0.339809748002   0.339355600217   
      0.338929476143   0.338534317379   0.338172871695   0.337847668684   0.337560997147   
      0.337314884499   0.337111078438   0.336951031095   0.336835885844   0.336766466894   
      0.336743271793   0.336766466894   0.336835885844   0.336951031095   0.337111078438   
      0.337314884499   0.337560997147   0.337847668684   0.338172871695   0.338534317379   
      0.338929476143   0.339355600217   0.339809748002   0.34028880983   0.340789534805   
      0.341308558335   0.341842430014   0.342387641444   0.342940653648   0.343497923721   
      0.344055930397   0.344611198249   0.345160320301   0.345699978837   0.346226964317   
      0.34673819228   0.347230718245   0.347701750614   0.348148661655   0.348568996669   
      0.348960481486   0.349321028435   0.349648740994   0.349941917268   0.350199052511   
      0.350418840867   0.350600176484   0.350742154187   0.35084406982   0.350905420393   
      0.350925904115   0.350905420393   0.35084406982   0.350742154187   0.350600176484   
      0.350418840867   0.350199052511   0.349941917268   0.349648740994   0.349321028435   
      0.348960481486   0.348568996669   0.348148661655   0.347701750614   0.347230718245   
      0.34673819228   0.346226964317   0.345699978837   0.345160320301   0.344611198249   
      0.344055930397   0.343497923721   0.342940653648   0.342387641444   0.341842430014   
      0.341308558335   0.340789534805   0.34028880983   0.339809748002   0.339355600217   
      0.338929476143   0.338534317379   0.338172871695   0.337847668684   0.337560997147   
      0.337314884499   0.337111078438   0.336951031095   0.336835885844   0.336766466894   
      0.336743271793   0.336766466894   0.336835885844   0.336951031095   0.337111078438   
      0.337314884499   0.337560997147   0.337847668684   0.338172871695   0.338534317379   
      0.338929476143   0.339355600217   0.339809748002   0.34028880983   0.340789534805   
      0.341308558335   0.341842430014   0.342387641444   0.342940653648   0.343497923721   
      0.344055930397   0.344611198249   0.345160320301   0.345699978837   0.346226964317   
      0.34673819228   0.347230718245   0.347701750614   0.348148661655   0.348568996669   
      0.348960481486   0.349321028435   0.349648740994   0.349941917268   0.350199052511   
      0.350418840867   0.350600176484   0.350742154187   0.35084406982   0.350905420393   
      0.354359813949   0.354339509058   0.354278693295   0.354177663403   0.354036914016   
      0.353857137697   0.353639224901   0.353384263771   0.353093539651   0.352768534171   
      0.352410923762   0.352022577419   0.351605553539   0.351162095632   0.350694626737   
      0.350205742343   0.349698201662   0.349174917103   0.348638941827   0.34809345531   
      0.347541746873   0.346987197193   0.346433257854   0.345883429063   0.345341235692   
      0.344810201894   0.344293824529   0.343795545752   0.343318725081   0.342866611331   
      0.342442314783   0.342048779986   0.341688759566   0.341364789387   0.341079165434   
      0.340833922681   0.340630816257   0.340471305116   0.340356538413   0.340287344757   
      0.340264224443   0.340287344757   0.340356538413   0.340471305116   0.340630816257   
      0.340833922681   0.341079165434   0.341364789387   0.341688759566   0.342048779986   
      0.342442314783   0.342866611331   0.343318725081   0.343795545752   0.344293824529   
      0.344810201894   0.345341235692   0.345883429063   0.346433257854   0.346987197193   
      0.347541746873   0.34809345531   0.348638941827   0.349174917103   0.349698201662   
      0.350205742343   0.350694626737   0.351162095632   0.351605553539   0.352022577419   
      0.352410923762   0.352768534171   0.353093539651   0.353384263771   0.353639224901   
      0.353857137697   0.354036914016   0.354177663403   0.354278693295   0.354339509058   
      0.361449887134   0.36143000736   0.361370463371   0.361271541218   0.361133717798   
      0.360957661045   0.360744230085   0.360494475297   0.360209638147   0.359891150671   
      0.359540634451   0.359159898911   0.358750938757   0.358315930371   0.35785722696   
      0.357377352287   0.356878992789   0.356364987943   0.355838318738   0.355302094147   
      0.354759535565   0.354213959167   0.353668756259   0.353127371688   0.352593280473   
      0.352069962861   0.351560878056   0.35106943692   0.350598973993   0.350152719197   
      0.349733769611   0.349345061718   0.348989344529   0.348669153968   0.348386788884   
      0.348144289049   0.347943415439   0.34778563308   0.347672096689   0.347603639312   
      0.347580764096   0.347603639312   0.347672096689   0.34778563308   0.347943415439   
      0.348144289049   0.348386788884   0.348669153968   0.348989344529   0.349345061718   
      0.349733769611   0.350152719197   0.350598973993   0.35106943692   0.351560878056   
      0.352069962861   0.352593280473   0.353127371688   0.353668756259   0.354213959167   
      0.354759535565   0.355302094147   0.355838318738   0.356364987943   0.356878992789   
      0.357377352287   0.35785722696   0.358315930371   0.358750938757   0.359159898911   
      0.359540634451   0.359891150671   0.360209638147   0.360494475297   0.360744230085   
      0.360957661045   0.361133717798   0.361271541218   0.361370463371   0.36143000736   
      0.372558623167   0.372539547402   0.372482409591   0.372387478261   0.372255201235   
      0.372086205979   0.371881300035   0.371641471403   0.37136788881   0.371061901699   
      0.370725039821   0.37035901224   0.369965705595   0.369547181406   0.369105672251   
      0.368643576613   0.368163452208   0.36766800763   0.367160092152   0.366642683581   
      0.366118874051   0.365591853744   0.365064892521   0.364541319535   0.364024500932   
      0.36351781582   0.363024630723   0.362548272803   0.362092002174   0.361658983668   
      0.361252258455   0.360874715908   0.360529066174   0.360217813829   0.359943233064   
      0.359707344778   0.359511895933   0.359358341513   0.359247829362   0.359181188135   
      0.359158918559   0.359181188135   0.359247829362   0.359358341513   0.359511895933   
      0.359707344778   0.359943233064   0.360217813829   0.360529066174   0.360874715908   
      0.361252258455   0.361658983668   0.362092002174   0.362548272803   0.363024630723   
      0.36351781582   0.364024500932   0.364541319535   0.365064892521   0.365591853744   
      0.366118874051   0.366642683581   0.367160092152   0.36766800763   0.368163452208   
      0.368643576613   0.369105672251   0.369547181406   0.369965705595   0.37035901224   
      0.370725039821   0.371061901699   0.37136788881   0.371641471403   0.371881300035   
      0.372086205979   0.372255201235   0.372387478261   0.372482409591   0.372539547402   
      0.388054030543   0.388036321368   0.387983274701   0.38789513324   0.387772301863   
      0.387615348178   0.387425003197   0.387202162079   0.386947884829   0.386663396843   
      0.386350089148   0.386009518198   0.385643405037   0.385253633659   0.38484224837   
      0.384411449958   0.383963590487   0.383501166525   0.383026810644   0.382543281055   
      0.382053449261   0.381560285653   0.381066843021   0.380576238009   0.380091630569   
      0.379616201564   0.379153128702   0.378705561041   0.378276592369   0.37786923381   
      0.377486386019   0.377130811411   0.376805106839   0.376511677173   0.376252710231   
      0.376030153484   0.375845692948   0.375700734642   0.375596388926   0.375533458029   
      0.375512426968   0.375533458029   0.375596388926   0.375700734642   0.375845692948   
      0.376030153484   0.376252710231   0.376511677173   0.376805106839   0.377130811411   
      0.377486386019   0.37786923381   0.378276592369   0.378705561041   0.379153128702   
      0.379616201564   0.380091630569   0.380576238009   0.381066843021   0.381560285653   
      0.382053449261   0.382543281055   0.383026810644   0.383501166525   0.383963590487   
      0.384411449958   0.38484224837   0.385253633659   0.385643405037   0.386009518198   
      0.386350089148   0.386663396843   0.386947884829   0.387202162079   0.387425003197   
      0.387615348178   0.387772301863   0.38789513324   0.387983274701   0.388036321368   
      0.407951186477   0.407935548784   0.407888705008   0.407810863195   0.407702370564   