<?xml version="1.0"?>
<VTKFile type="ImageData" version="0.1" byte_order="LittleEndian">
  <ImageData WholeExtent="0 79 0 19 0 19" Origin="0 0 0" Spacing="1 1 1">
  <Piece Extent="0 79 0 19 0 19">
    <PointData Scalars="density">
       <DataArray type="Float32" Name="bluedensity" NumberOfComponents="1" format="ascii">
      0   0   0   0   0   
      0   0   0   0   0   
      0   0   0   0   0   
      0   0   0   0   0   
      0   0   0   0   0   
      0   0   0   0   0   
      0   0   0   0   0   
      0   0   0   0   0   
      0   0   0   0   0   
      0   0   0   0   0   
      0   0   0   0   0   
      0   0   0   0   0   
      0   0   0   0   0   
      0   0   0   0   0   
      0   0   0   0   0   
      0   0   0   0   0   
      0   0   0   0   0   
      0   0   0   0   0   
      0   0   0   0   0   
      0   0   0   0   0   
      0   0   0   0   0   
      0   0   0   0   0   
      0   0   0   0   0   
      0   0   0   0   0   
      0   0   0   0   0   
      0   0   0   0   0   
      0   0   0   0   0   
      0   0   0   0   0   
      0   0   0   0   0   
      0   0   0   0   0   
      0   0   0   0   0   
      0   0   0   0   0   
      0   0   0   0   0   
      0   0   0   0   0   
      0   0   0   0   0   
      0   0   0   0   0   
      0   0   0   0   0   
      0   0   0   0   0   
      0   0   0   0   0   
      0   0   0   0   0   
      0   0   0   0   0   
      0   0   0   0   0   
      0   0   0   0   0   
      0   0   0   0   0   
      0   0   0   0   0   
      0   0   0   0   0   
      0   0   0   0   0   
      0   0   0   0   0   
      0   0   0   0   0   
      0   0   0   0   0   
      0   0   0   0   0   
      0   0   0   0   0   
      0   0   0   0   0   
      0   0   0   0   0   
      0   0   0   0   0   
      0   0   0   0   0   
      0   0   0   0   0   
      0   0   0   0   0   
      0   0   0   0   0   
      0   0   0   0   0   
      0   0   0   0   0   
      0   0   0   0   0   
      0   0   0   0   0   
      0   0   0   0   0   
      0   0   0   0   0   
      0   0   0   0   0   
      0   0   0   0   0   
      0   0   0   0   0   
      0   0   0   0   0   
      0   0   0   0   0   
      0   0   0   0   0   
      0   0   0   0   0   
      0   0   0   0   0   
      0   0   0   0   0   
      0   0   0   0   0   
      0   0   0   0   0   
      0   0   0   0   0   
      0   0   0   0   0   
      0   0   0   0   0   
      0   0   0   0   0   
      0   0   0   0   0   
      0   0   0   0   0   
      0   0   0   0   0   
      0   0   0   0   0   
      0   0   0   0   0   
      0   0   0   0   0   
      0   0   0   0   0   
      0   0   0   0   0   
      0   0   0   0   0   
      0   0   0   0   0   
      0   0   0   0   0   
      0   0   0   0   0   
      0   0   0   0   0   
      0   0   0   0   0   
      0   0   0   0   0   
      0   0   0   0   0   
      0   0   0   0   0   
      0   0   0   0   0   
      0   0   0   0   0   
      0   0   0   0   0   
      0   0   0   0   0   
      0   0   0   0   0   
      0   0   0   0   0   
      0   0   0   0   0   
      0   0   0   0   0   
      0   0   0   0   0   
      0   0   0   0   0   
      0   0   0   0   0   
      0   0   0   0   0   
      0   0   0   0   0   
      0   0   0   0   0   
      0   0   0   0   0   
      0   0   0   0   0   
      0   0   0   0   0   
      0   0   0   0   0   
      0   0   0   0   0   
      0   0   0   0   0   
      0   0   0   0   0   
      0   0   0   0   0   
      0   0   0   0   0   
      0   0   0   0   0   
      0   0   0   0   0   
      0   0   0   0   0   
      0   0   0   0   0   
      0   0   0   0   0   
      0   0   0   0   0   
      0   0   0   0   0   
      0   0   0   0   0   
      0   0   0   0   0   
      0   0   0   0   0   
      0   0   0   0   0   
      0   0   0   0   0   
      0   0   0   0   0   
      0   0   0   0   0   
      0   0   0   0   0   
      0   0   0   0   0   
      0   0   0   0   0   
      0   0   0   0   0   
      0   0   0   0   0   
      0   0   0   0   0   
      0   0   0   0   0   
      0   0   0   0   0   
      0   0   0   0   0   
      0   0   0   0   0   
      0   0   0   0   0   
      0   0   0   0   0   
      0   0   0   0   0   
      0   0   0   0   0   
      0   0   0   0   0   
      0   0   0   0   0   
      0   0   0   0   0   
      0   0   0   0   0   
      0   0   0   0   0   
      0   0   0   0   0   
      0   0   0   0   0   
      0   0   0   0   0   
      0   0   0   0   0   
      0   0   0   0   0   
      0   0   0   0   0   
      0   0   0   0   0   
      0   0   0   0   0   
      0   0   0   0   0   
      0   0   0   0   0   
      0   0   0   0   0   
      0   0   0   0   0   
      0   0   0   0   0   
      0   0   0   0   0   
      0   0   0   0   0   
      0   0   0   0   0   
      0   0   0   0   0   
      0   0   0   0   0   
      0   0   0   0   0   
      0   0   0   0   0   
      0   0   0   0   0   
      0   0   0   0   0   
      0   0   0   0   0   
      0   0   0   0   0   
      0   0   0   0   0   
      0   0   0   0   0   
      0   0   0   0   0   
      0   0   0   0   0   
      0   0   0   0   0   
      0   0   0   0   0   
      0   0   0   0   0   
      0   0   0   0   0   
      0   0   0   0   0   
      0   0   0   0   0   
      0   0   0   0   0   
      0   0   0   0   0   
      0   0   0   0   0   
      0   0   0   0   0   
      0   0   0   0   0   
      0   0   0   0   0   
      0   0   0   0   0   
      0   0   0   0   0   
      0   0   0   0   0   
      0   0   0   0   0   
      0   0   0   0   0   
      0   0   0   0   0   
      0   0   0   0   0   
      0   0   0   0   0   
      0   0   0   0   0   
      0   0   0   0   0   
      0   0   0   0   0   
      0   0   0   0   0   
      0   0   0   0   0   
      0   0   0   0   0   
      0   0   0   0   0   
      0   0   0   0   0   
      0   0   0   0   0   
      0   0   0   0   0   
      0   0   0   0   0   
      0   0   0   0   0   
      0   0   0   0   0   
      0   0   0   0   0   
      0   0   0   0   0   
      0   0   0   0   0   
      0   0   0   0   0   
      0   0   0   0   0   
      0   0   0   0   0   
      0   0   0   0   0   
      0   0   0   0   0   
      0   0   0   0   0   
      0   0   0   0   0   
      0   0   0   0   0   
      0   0   0   0   0   
      0   0   0   0   0   
      0   0   0   0   0   
      0   0   0   0   0   
      0   0   0   0   0   
      0   0   0   0   0   
      0   0   0   0   0   
      0   0   0   0   0   
      0   0   0   0   0   
      0   0   0   0   0   
      0   0   0   0   0   
      0   0   0   0   0   
      0   0   0   0   0   
      0   0   0   0   0   
      0   0   0   0   0   
      0   0   0   0   0   
      0   0   0   0   0   
      0   0   0   0   0   
      0   0   0   0   0   
      0   0   0   0   0   
      0   0   0   0   0   
      0   0   0   0   0   
      0   0   0   0   0   
      0   0   0   0   0   
      0   0   0   0   0   
      0   0   0   0   0   
      0   0   0   0   0   
      0   0   0   0   0   
      0   0   0   0   0   
      0   0   0   0   0   
      0   0   0   0   0   
      0   0   0   0   0   
      0   0   0   0   0   
      0   0   0   0   0   
      0   0   0   0   0   
      0   0   0   0   0   
      0   0   0   0   0   
      0   0   0   0   0   
      0   0   0   0   0   
      0   0   0   0   0   
      0   0   0   0   0   
      0   0   0   0   0   
      0   0   0   0   0   
      0   0   0   0   0   
      0   0   0   0   0   
      0   0   0   0   0   
      0   0   0   0   0   
      0   0   0   0   0   
      0   0   0   0   0   
      0   0   0   0   0   
      0   0   0   0   0   
      0   0   0   0   0   
      0   0   0   0   0   
      0   0   0   0   0   
      0   0   0   0   0   
      0   0   0   0   0   
      0   0   0   0   0   
      0   0   0   0   0   
      0   0   0   0   0   
      0   0   0   0   0   
      0   0   0   0   0   
      0   0   0   0   0   
      0   0   0   0   0   
      0   0   0   0   0   
      0   0   0   0   0   
      0   0   0   0   0   
      0   0   0   0   0   
      0   0   0   0   0   
      0   0   0   0   0   
      0   0   0   0   0   
      0   0   0   0   0   
      0   0   0   0   0   
      0   0   0   0   0   
      0   0   0   0   0   
      0   0   0   0   0   
      0   0   0   0   0   
      0   0   0   0   0   
      0   0   0   0   0   
      0   0   0   0   0   
      0   0   0   0   0   
      0   0   0   0   0   
      0   0   0   0   0   
      0   0   0   0   0   
      0   0   0   0   0   
      0   0   0   0   0   
      0   0   0   0   0   
      0   0   0   0   0   
      0   0   0   0   0   
      0   0   0   0   0   
      0   0   0   0   0   
      0   0   0   0   0   
      0   0   0   0   0   
      0   0   0   0   0   
      0   0   0   0   0   
      0   0   0   0   0   
      0   0   0   0   0   
      0   0   0   0   0   
      0   0   0   0   0   
      0   0   0   0   0   
      0   0   0   0   0   
      0   0   0   0   0   
      0   0   0   0   0   
      0   0   0   0   0   
      0   0   0   0   0   
      0   0   0   0   0   
      0   0   0   0   0   
      0   0   0   0   0   
      0   0   0   0   0   
      0   0   0   0   0   
      0   0   0   0   0   
      0   0   0   0   0   
      0.573440080966   0.573427921417   0.573391477056   0.573330851171   0.573246217321   
      0.573137821446   0.5730059848   0.572851107678   0.5726736739   0.572474256002   
      0.572253521055   0.572012237016   0.571751279483   0.571471638699   0.571174426598   
      0.570860883654   0.570532385258   0.570190447291   0.569836730535   0.56947304351   
      0.569101343342   0.568723734206   0.568342462934   0.567959911395   0.56757858529   
      0.567201099121   0.566830157132   0.566468530222   0.566119028906   0.565784472603   
      0.565467655687   0.565171310895   0.564898070856   0.564650428634   0.564430698312   
      0.564240976661   0.564083107054   0.563958646678   0.563868838103   0.563814586126   
      0.56379644064   0.563814586126   0.563868838103   0.563958646678   0.564083107054   
      0.564240976661   0.564430698312   0.564650428634   0.564898070856   0.565171310895   
      0.565467655687   0.565784472603   0.566119028906   0.566468530222   0.566830157132   
      0.567201099121   0.56757858529   0.567959911395   0.568342462934   0.568723734206   
      0.569101343342   0.56947304351   0.569836730535   0.570190447291   0.570532385258   
      0.570860883654   0.571174426598   0.571471638699   0.571751279483   0.572012237016   
      0.572253521055   0.572474256002   0.5726736739   0.572851107678   0.5730059848   
      0.573137821446   0.573246217321   0.573330851171   0.573391477056   0.573427921417   
      0.461662357739   0.461645493525   0.46159494792   0.461510862664   0.461393476073   
      0.46124312615   0.461060254896   0.460845413785   0.460599270334   0.460322615677   
      0.460016373033   0.459681606907   0.459319532824   0.458931527351   0.458519138108   
      0.458084093408   0.457628311112   0.457153906222   0.456663196695   0.45615870693   
      0.455643168314   0.455119516283   0.4545908833   0.454060587264   0.453532114919   
      0.45300909995   0.452495295614   0.451994541927   0.451510727624   0.451047747324   
      0.450609454556   0.450199611513   0.44982183659   0.449479550921   0.449175925273   
      0.448913828706   0.448695780433   0.448523906297   0.448399901145   0.448324998276   
      0.448299946891   0.448324998276   0.448399901145   0.448523906297   0.448695780433   
      0.448913828706   0.449175925273   0.449479550921   0.44982183659   0.450199611513   
      0.450609454556   0.451047747324   0.451510727624   0.451994541927   0.452495295614   
      0.45300909995   0.453532114919   0.454060587264   0.4545908833   0.455119516283   
      0.455643168314   0.45615870693   0.456663196695   0.457153906222   0.457628311112   
      0.458084093408   0.458519138108   0.458931527351   0.459319532824   0.459681606907   
      0.460016373033   0.460322615677   0.460599270334   0.460845413785   0.461060254896   
      0.46124312615   0.461393476073   0.461510862664   0.46159494792   0.461645493525   
      0.436818759636   0.436796939702   0.436731543506   0.436622762666   0.436470919219   
      0.436276469599   0.436040010145   0.435762284059   0.43544418972   0.43508679022   
      0.434691323931   0.434259215893   0.433792089725   0.433291779723   0.432760342714   
      0.432200069218   0.431613493329   0.431003400738   0.430372834223   0.429725095924   
      0.429063745693   0.428392594853   0.427715694717   0.427037319352   0.426361942143   
      0.425694205937   0.425038886683   0.424400850756   0.42378500636   0.423196249658   
      0.422639406538   0.422119171101   0.421640042208   0.4212062595   0.420821740472   
      0.420490020181   0.420214195163   0.419996873067   0.419840129391   0.419745472494   
      0.419713817884   0.419745472494   0.419840129391   0.419996873067   0.420214195163   
      0.420490020181   0.420821740472   0.4212062595   0.421640042208   0.422119171101   
      0.422639406538   0.423196249658   0.42378500636   0.424400850756   0.425038886683   
      0.425694205937   0.426361942143   0.427037319352   0.427715694717   0.428392594853   
      0.429063745693   0.429725095924   0.430372834223   0.431003400738   0.431613493329   
      0.432200069218   0.432760342714   0.433291779723   0.433792089725   0.434259215893   
      0.434691323931   0.43508679022   0.43544418972   0.435762284059   0.436040010145   
      0.436276469599   0.436470919219   0.436622762666   0.436731543506   0.436796939702   
      0.412218348152   0.412191595826   0.412111421847   0.411978076172   0.411791978548   
      0.411553723203   0.41126408531   0.410924029113   0.410534717583   0.410097523388   
      0.409614040951   0.409086099263   0.408515775077   0.407905406034   0.407257603183   
      0.406575262291   0.405861573274   0.40512002701   0.40435441878   0.403568847538   
      0.402767710264   0.401955690676   0.401137741689   0.400319061134   0.399505060439   
      0.398701326152   0.397913574456   0.397147599067   0.396409213154   0.395704186191   
      0.395038176872   0.394416663394   0.39384487261   0.393327709594   0.392869689251   
      0.392474871548   0.392146801917   0.391888458227   0.391702205581   0.391589760017   
      0.391552161957   0.391589760017   0.391702205581   0.391888458227   0.392146801917   
      0.392474871548   0.392869689251   0.393327709594   0.39384487261   0.394416663394   
      0.395038176872   0.395704186191   0.396409213154   0.397147599067   0.397913574456   
      0.398701326152   0.399505060439   0.400319061134   0.401137741689   0.401955690676   
      0.402767710264   0.403568847538   0.40435441878   0.40512002701   0.405861573274   
      0.406575262291   0.407257603183   0.407905406034   0.408515775077   0.409086099263   
      0.409614040951   0.410097523388   0.410534717583   0.410924029113   0.41126408531   
      0.411553723203   0.411791978548   0.411978076172   0.412111421847   0.412191595826   
      0.392920443441   0.392889972783   0.392798661608   0.392646813344   0.392434937122   
      0.392163752835   0.391834198084   0.391447436868   0.391004869826   0.390508145768   
      0.389959174181   0.38936013832   0.388713508412   0.388022054422   0.387288857755   
      0.386517321196   0.385711176328   0.384874487617   0.384011652354   0.383127395648   
      0.38222675972   0.381315086834   0.380397995364   0.379481348639   0.37857121646   
      0.377673829397   0.376795526255   0.375942695343   0.375121710454   0.374338862653   
      0.373600289193   0.37291190098   0.372279310105   0.371707758971   0.371202052515   
      0.370766494927   0.370404832174   0.370120201439   0.369915088459   0.369791293547   
      0.369749906886   0.369791293547   0.369915088459   0.370120201439   0.370404832174   
      0.370766494927   0.371202052515   0.371707758971   0.372279310105   0.37291190098   
      0.373600289193   0.374338862653   0.375121710454   0.375942695343   0.376795526255   
      0.377673829397   0.37857121646   0.379481348639   0.380397995364   0.381315086834   
      0.38222675972   0.383127395648   0.384011652354   0.384874487617   0.385711176328   
      0.386517321196   0.387288857755   0.388022054422   0.388713508412   0.38936013832   
      0.389959174181   0.390508145768   0.391004869826   0.391447436868   0.391834198084   
      0.392163752835   0.392434937122   0.392646813344   0.392798661608   0.392889972783   
      0.377829755564   0.377796757677   0.377697879436   0.377533468171   0.37730410628   
      0.377010616433   0.376654068674   0.376235789252   0.375757370952   0.375220684595   
      0.374627891345   0.373981455354   0.373284156201   0.3725391005   0.37174973198   
      0.370919839266   0.370053560549   0.369155384317   0.368230145301   0.367283014886   
      0.366319485282   0.36534534691   0.364366658628   0.363389710658   0.362420980281   
      0.361467080683   0.360534703568   0.359630556402   0.358761295409   0.357933455586   
      0.357153379129   0.356427143746   0.355760492299   0.355158765185   0.354626836725   
      0.354169056722   0.353789198126   0.353490411634   0.353275187811   0.353145327219   
      0.353101918871   0.353145327219   0.353275187811   0.353490411634   0.353789198126   
      0.354169056722   0.354626836725   0.355158765185   0.355760492299   0.356427143746   
      0.357153379129   0.357933455586   0.358761295409   0.359630556402   0.360534703568   
      0.361467080683   0.362420980281   0.363389710658   0.364366658628   0.36534534691   
      0.366319485282   0.367283014886   0.368230145301   0.369155384317   0.370053560549   
      0.370919839266   0.37174973198   0.3725391005   0.373284156201   0.373981455354   
      0.374627891345   0.375220684595   0.375757370952   0.376235789252   0.376654068674   
      0.377010616433   0.37730410628   0.377533468171   0.377697879436   0.377796757677   
      0.366966304801   0.366931762403   0.366828261463   0.366656181808   0.366416160019   
      0.366109094629   0.365736153212   0.365298781129   0.364798711688   0.364237977326   
      0.363618921419   0.362944210177   0.362216844029   0.361440167826   0.360617879106   
      0.359754033606   0.35885304719   0.357919693355   0.356959095499   0.355976713236   
      0.354978322149   0.353969986549   0.352958025036   0.351948968861   0.350949513406   
      0.349966463346   0.349006672299   0.348076978066   0.347184134668   0.346334742588   
      0.345535178644   0.344791526924   0.344109512143   0.343494436658   0.342951122179   
      0.342483857067   0.342096349858   0.341791689497   0.341572312587   0.341439977838   
      0.341395747789   0.341439977838   0.341572312587   0.341791689497   0.342096349858   
      0.342483857067   0.342951122179   0.343494436658   0.344109512143   0.344791526924   
      0.345535178644   0.346334742588   0.347184134668   0.348076978066   0.349006672299   
      0.349966463346   0.350949513406   0.351948968861   0.352958025036   0.353969986549   
      0.354978322149   0.355976713236   0.356959095499   0.357919693355   0.35885304719   
      0.359754033606   0.360617879106   0.361440167826   0.362216844029   0.362944210177   
      0.363618921419   0.364237977326   0.364798711688   0.365298781129   0.365736153212   
      0.366109094629   0.366416160019   0.366656181808   0.366828261463   0.366931762403   
      0.36001026808   0.359974873385   0.359868822655   0.359692517026   0.359446628567   
      0.359132105444   0.358750178917   0.358302371954   0.357790509148   0.357216727563   
      0.356583488022   0.355893586308   0.355150163617   0.354356715556   0.3535170989   
      0.352635535285   0.351716610975   0.350765271888   0.34978681308   0.34878686204   
      0.347771355242   0.346746507643   0.345718775012   0.344694809276   0.343681407303   
      0.342685453862   0.341713859711   0.34077349602   0.339871126446   0.339013338311   
      0.338206474311   0.337456566157   0.336769271396   0.336149814508   0.33560293315   
      0.335132830199   0.334743132029   0.334436853259   0.334216368047   0.334083387929   
      0.334038946079   0.334083387929   0.334216368047   0.334436853259   0.334743132029   
      0.335132830199   0.33560293315   0.336149814508   0.336769271396   0.337456566157   
      0.338206474311   0.339013338311   0.339871126446   0.34077349602   0.341713859711   
      0.342685453862   0.343681407303   0.344694809276   0.345718775012   0.346746507643   
      0.347771355242   0.34878686204   0.34978681308   0.350765271888   0.351716610975   
      0.352635535285   0.3535170989   0.354356715556   0.355150163617   0.355893586308   
      0.356583488022   0.357216727563   0.357790509148   0.358302371954   0.358750178917   
      0.359132105444   0.359446628567   0.359692517026   0.359868822655   0.359974873385   
      0.356634376786   0.35659860995   0.356491446313   0.356313297549   0.356064853273   
      0.355747086166   0.355361258912   0.354908932711   0.354391977046   0.353812580304   
      0.353173260766   0.352476877386   0.351726639706   0.350926116172   0.350079240045   
      0.349190312087   0.348263999151   0.347305327855   0.346319672597   0.345312737236   
      0.344290529985   0.343259331223   0.342225654198   0.341196198868   0.340177799394   
      0.33917736609   0.338201822865   0.337258041405   0.336352773487   0.335492582859   
      0.33468377814   0.333932348087   0.333243900441   0.332623605348   0.332076144143   
      0.331605664023   0.331215738927   0.330909336739   0.33068879278   0.330555789459   
      0.330511341911   0.330555789459   0.33068879278   0.330909336739   0.331215738927   
      0.331605664023   0.332076144143   0.332623605348   0.333243900441   0.333932348087   
      0.33468377814   0.335492582859   0.336352773487   0.337258041405   0.338201822865   
      0.33917736609   0.340177799394   0.341196198868   0.342225654198   0.343259331223   
      0.344290529985   0.345312737236   0.346319672597   0.347305327855   0.348263999151   
      0.349190312087   0.350079240045   0.350926116172   0.351726639706   0.352476877386   
      0.353173260766   0.353812580304   0.354391977046   0.354908932711   0.355361258912   
      0.355747086166   0.356064853273   0.356313297549   0.356491446313   0.35659860995   
      0.356634376786   0.35659860995   0.356491446313   0.356313297549   0.356064853273   
      0.355747086166   0.355361258912   0.354908932711   0.354391977046   0.353812580304   
      0.353173260766   0.352476877386   0.351726639706   0.350926116172   0.350079240045   
      0.349190312087   0.348263999151   0.347305327855   0.346319672597   0.345312737236   
      0.344290529985   0.343259331223   0.342225654198   0.341196198868   0.340177799394   
      0.33917736609   0.338201822865   0.337258041405   0.336352773487   0.335492582859   
      0.33468377814   0.333932348087   0.333243900441   0.332623605348   0.332076144143   
      0.331605664023   0.331215738927   0.330909336739   0.33068879278   0.330555789459   
      0.330511341911   0.330555789459   0.33068879278   0.330909336739   0.331215738927   
      0.331605664023   0.332076144143   0.332623605348   0.333243900441   0.333932348087   
      0.33468377814   0.335492582859   0.336352773487   0.337258041405   0.338201822865   
      0.33917736609   0.340177799394   0.341196198868   0.342225654198   0.343259331223   
      0.344290529985   0.345312737236   0.346319672597   0.347305327855   0.348263999151   
      0.349190312087   0.350079240045   0.350926116172   0.351726639706   0.352476877386   
      0.353173260766   0.353812580304   0.354391977046   0.354908932711   0.355361258912   
      0.355747086166   0.356064853273   0.356313297549   0.356491446313   0.35659860995   
      0.36001026808   0.359974873385   0.359868822655   0.359692517026   0.359446628567   
      0.359132105444   0.358750178917   0.358302371954   0.357790509148   0.357216727563   
      0.356583488022   0.355893586308   0.355150163617   0.354356715556   0.3535170989   
      0.352635535285   0.351716610975   0.350765271888   0.34978681308   0.34878686204   
      0.347771355242   0.346746507643   0.345718775012   0.344694809276   0.343681407303   
      0.342685453862   0.341713859711   0.34077349602   0.339871126446   0.339013338311   
      0.338206474311   0.337456566157   0.336769271396   0.336149814508   0.33560293315   
      0.335132830199   0.334743132029   0.334436853259   0.334216368047   0.334083387929   
      0.334038946079   0.334083387929   0.334216368047   0.334436853259   0.334743132029   
      0.335132830199   0.33560293315   0.336149814508   0.336769271396   0.337456566157   
      0.338206474311   0.339013338311   0.339871126446   0.34077349602   0.341713859711   
      0.342685453862   0.343681407303   0.344694809276   0.345718775012   0.346746507643   
      0.347771355242   0.34878686204   0.34978681308   0.350765271888   0.351716610975   
      0.352635535285   0.3535170989   0.354356715556   0.355150163617   0.355893586308   
      0.356583488022   0.357216727563   0.357790509148   0.358302371954   0.358750178917   
      0.359132105444   0.359446628567   0.359692517026   0.359868822655   0.359974873385   
      0.366966304801   0.366931762403   0.366828261463   0.366656181808   0.366416160019   
      0.366109094629   0.365736153212   0.365298781129   0.364798711688   0.364237977326   
      0.363618921419   0.362944210177   0.362216844029   0.361440167826   0.360617879106   
      0.359754033606   0.35885304719   0.357919693355   0.356959095499   0.355976713236   
      0.354978322149   0.353969986549   0.352958025036   0.351948968861   0.350949513406   
      0.349966463346   0.349006672299   0.348076978066   0.347184134668   0.346334742588   
      0.345535178644   0.344791526924   0.344109512143   0.343494436658   0.342951122179   
      0.342483857067   0.342096349858   0.341791689497   0.341572312587   0.341439977838   
      0.341395747789   0.341439977838   0.341572312587   0.341791689497   0.342096349858   
      0.342483857067   0.342951122179   0.343494436658   0.344109512143   0.344791526924   
      0.345535178644   0.346334742588   0.347184134668   0.348076978066   0.349006672299   
      0.349966463346   0.350949513406   0.351948968861   0.352958025036   0.353969986549   
      0.354978322149   0.355976713236   0.356959095499   0.357919693355   0.35885304719   
      0.359754033606   0.360617879106   0.361440167826   0.362216844029   0.362944210177   
      0.363618921419   0.364237977326   0.364798711688   0.365298781129   0.365736153212   
      0.366109094629   0.366416160019   0.366656181808   0.366828261463   0.366931762403   
      0.377829755564   0.377796757677   0.377697879436   0.377533468171   0.37730410628   
      0.377010616433   0.376654068674   0.376235789252   0.375757370952   0.375220684595   
      0.374627891345   0.373981455354   0.373284156201   0.3725391005   0.37174973198   
      0.370919839266   0.370053560549   0.369155384317   0.368230145301   0.367283014886   
      0.366319485282   0.36534534691   0.364366658628   0.363389710658   0.362420980281   
      0.361467080683   0.360534703568   0.359630556402   0.358761295409   0.357933455586   
      0.357153379129   0.356427143746   0.355760492299   0.355158765185   0.354626836725   
      0.354169056722   0.353789198126   0.353490411634   0.353275187811   0.353145327219   
      0.353101918871   0.353145327219   0.353275187811   0.353490411634   0.353789198126   
      0.354169056722   0.354626836725   0.355158765185   0.355760492299   0.356427143746   
      0.357153379129   0.357933455586   0.358761295409   0.359630556402   0.360534703568   
      0.361467080683   0.362420980281   0.363389710658   0.364366658628   0.36534534691   
      0.366319485282   0.367283014886   0.368230145301   0.369155384317   0.370053560549   
      0.370919839266   0.37174973198   0.3725391005   0.373284156201   0.373981455354   
      0.374627891345   0.375220684595   0.375757370952   0.376235789252   0.376654068674   
      0.377010616433   0.37730410628   0.377533468171   0.377697879436   0.377796757677   
      0.392920443441   0.392889972783   0.392798661608   0.392646813344   0.392434937122   
      0.392163752835   0.391834198084   0.391447436868   0.391004869826   0.390508145768   
      0.389959174181   0.38936013832   0.388713508412   0.388022054422   0.387288857755   
      0.386517321196   0.385711176328   0.384874487617   0.384011652354   0.383127395648   
      0.38222675972   0.381315086834   0.380397995364   0.379481348639   0.37857121646   
      0.377673829397   0.376795526255   0.375942695343   0.375121710454   0.374338862653   
      0.373600289193   0.37291190098   0.372279310105   0.371707758971   0.371202052515   
      0.370766494927   0.370404832174   0.370120201439   0.369915088459   0.369791293547   
      0.369749906886   0.369791293547   0.369915088459   0.370120201439   0.370404832174   
      0.370766494927   0.371202052515   0.371707758971   0.372279310105   0.37291190098   
      0.373600289193   0.374338862653   0.375121710454   0.375942695343   0.376795526255   
      0.377673829397   0.37857121646   0.379481348639   0.380397995364   0.381315086834   
      0.38222675972   0.383127395648   0.384011652354   0.384874487617   0.385711176328   
      0.386517321196   0.387288857755   0.388022054422   0.388713508412   0.38936013832   
      0.389959174181   0.390508145768   0.391004869826   0.391447436868   0.391834198084   
      0.392163752835   0.392434937122   0.392646813344   0.392798661608   0.392889972783   
      0.412218348152   0.412191595826   0.412111421847   0.411978076172   0.411791978548   