<?xml version="1.0"?>
<VTKFile type="ImageData" version="0.1" byte_order="LittleEndian">
  <ImageData WholeExtent="0 79 0 19 0 19" Origin="0 0 0" Spacing="1 1 1">
  <Piece Extent="0 79 0 19 0 19">
    <PointData Scalars="density">
       <DataArray type="Float32" Name="bluedensity" NumberOfComponents="1" format="ascii">
      0   0   0   0   0   
      0   0   0   0   0   
      0   0   0   0   0   
      0   0   0   0   0   
      0   0   0   0   0   
      0   0   0   0   0   
      0   0   0   0   0   
      0   0   0   0   0   
      0   0   0   0   0   
      0   0   0   0   0   
      0   0   0   0   0   
      0   0   0   0   0   
      0   0   0   0   0   
      0   0   0   0   0   
      0   0   0   0   0   
      0   0   0   0   0   
      0   0   0   0   0   
      0   0   0   0   0   
      0   0   0   0   0   
      0   0   0   0   0   
      0   0   0   0   0   
      0   0   0   0   0   
      0   0   0   0   0   
      0   0   0   0   0   
      0   0   0   0   0   
      0   0   0   0   0   
      0   0   0   0   0   
      0   0   0   0   0   
      0   0   0   0   0   
      0   0   0   0   0   
      0   0   0   0   0   
      0   0   0   0   0   
      0   0   0   0   0   
      0   0   0   0   0   
      0   0   0   0   0   
      0   0   0   0   0   
      0   0   0   0   0   
      0   0   0   0   0   
      0   0   0   0   0   
      0   0   0   0   0   
      0   0   0   0   0   
      0   0   0   0   0   
      0   0   0   0   0   
      0   0   0   0   0   
      0   0   0   0   0   
      0   0   0   0   0   
      0   0   0   0   0   
      0   0   0   0   0   
      0   0   0   0   0   
      0   0   0   0   0   
      0   0   0   0   0   
      0   0   0   0   0   
      0   0   0   0   0   
      0   0   0   0   0   
      0   0   0   0   0   
      0   0   0   0   0   
      0   0   0   0   0   
      0   0   0   0   0   
      0   0   0   0   0   
      0   0   0   0   0   
      0   0   0   0   0   
      0   0   0   0   0   
      0   0   0   0   0   
      0   0   0   0   0   
      0   0   0   0   0   
      0   0   0   0   0   
      0   0   0   0   0   
      0   0   0   0   0   
      0   0   0   0   0   
      0   0   0   0   0   
      0   0   0   0   0   
      0   0   0   0   0   
      0   0   0   0   0   
      0   0   0   0   0   
      0   0   0   0   0   
      0   0   0   0   0   
      0   0   0   0   0   
      0   0   0   0   0   
      0   0   0   0   0   
      0   0   0   0   0   
      0   0   0   0   0   
      0   0   0   0   0   
      0   0   0   0   0   
      0   0   0   0   0   
      0   0   0   0   0   
      0   0   0   0   0   
      0   0   0   0   0   
      0   0   0   0   0   
      0   0   0   0   0   
      0   0   0   0   0   
      0   0   0   0   0   
      0   0   0   0   0   
      0   0   0   0   0   
      0   0   0   0   0   
      0   0   0   0   0   
      0   0   0   0   0   
      0   0   0   0   0   
      0   0   0   0   0   
      0   0   0   0   0   
      0   0   0   0   0   
      0   0   0   0   0   
      0   0   0   0   0   
      0   0   0   0   0   
      0   0   0   0   0   
      0   0   0   0   0   
      0   0   0   0   0   
      0   0   0   0   0   
      0   0   0   0   0   
      0   0   0   0   0   
      0   0   0   0   0   
      0   0   0   0   0   
      0   0   0   0   0   
      0   0   0   0   0   
      0   0   0   0   0   
      0   0   0   0   0   
      0   0   0   0   0   
      0   0   0   0   0   
      0   0   0   0   0   
      0   0   0   0   0   
      0   0   0   0   0   
      0   0   0   0   0   
      0   0   0   0   0   
      0   0   0   0   0   
      0   0   0   0   0   
      0   0   0   0   0   
      0   0   0   0   0   
      0   0   0   0   0   
      0   0   0   0   0   
      0   0   0   0   0   
      0   0   0   0   0   
      0   0   0   0   0   
      0   0   0   0   0   
      0   0   0   0   0   
      0   0   0   0   0   
      0   0   0   0   0   
      0   0   0   0   0   
      0   0   0   0   0   
      0   0   0   0   0   
      0   0   0   0   0   
      0   0   0   0   0   
      0   0   0   0   0   
      0   0   0   0   0   
      0   0   0   0   0   
      0   0   0   0   0   
      0   0   0   0   0   
      0   0   0   0   0   
      0   0   0   0   0   
      0   0   0   0   0   
      0   0   0   0   0   
      0   0   0   0   0   
      0   0   0   0   0   
      0   0   0   0   0   
      0   0   0   0   0   
      0   0   0   0   0   
      0   0   0   0   0   
      0   0   0   0   0   
      0   0   0   0   0   
      0   0   0   0   0   
      0   0   0   0   0   
      0   0   0   0   0   
      0   0   0   0   0   
      0   0   0   0   0   
      0   0   0   0   0   
      0   0   0   0   0   
      0   0   0   0   0   
      0   0   0   0   0   
      0   0   0   0   0   
      0   0   0   0   0   
      0   0   0   0   0   
      0   0   0   0   0   
      0   0   0   0   0   
      0   0   0   0   0   
      0   0   0   0   0   
      0   0   0   0   0   
      0   0   0   0   0   
      0   0   0   0   0   
      0   0   0   0   0   
      0   0   0   0   0   
      0   0   0   0   0   
      0   0   0   0   0   
      0   0   0   0   0   
      0   0   0   0   0   
      0   0   0   0   0   
      0   0   0   0   0   
      0   0   0   0   0   
      0   0   0   0   0   
      0   0   0   0   0   
      0   0   0   0   0   
      0   0   0   0   0   
      0   0   0   0   0   
      0   0   0   0   0   
      0   0   0   0   0   
      0   0   0   0   0   
      0   0   0   0   0   
      0   0   0   0   0   
      0   0   0   0   0   
      0   0   0   0   0   
      0   0   0   0   0   
      0   0   0   0   0   
      0   0   0   0   0   
      0   0   0   0   0   
      0   0   0   0   0   
      0   0   0   0   0   
      0   0   0   0   0   
      0   0   0   0   0   
      0   0   0   0   0   
      0   0   0   0   0   
      0   0   0   0   0   
      0   0   0   0   0   
      0   0   0   0   0   
      0   0   0   0   0   
      0   0   0   0   0   
      0   0   0   0   0   
      0   0   0   0   0   
      0   0   0   0   0   
      0   0   0   0   0   
      0   0   0   0   0   
      0   0   0   0   0   
      0   0   0   0   0   
      0   0   0   0   0   
      0   0   0   0   0   
      0   0   0   0   0   
      0   0   0   0   0   
      0   0   0   0   0   
      0   0   0   0   0   
      0   0   0   0   0   
      0   0   0   0   0   
      0   0   0   0   0   
      0   0   0   0   0   
      0   0   0   0   0   
      0   0   0   0   0   
      0   0   0   0   0   
      0   0   0   0   0   
      0   0   0   0   0   
      0   0   0   0   0   
      0   0   0   0   0   
      0   0   0   0   0   
      0   0   0   0   0   
      0   0   0   0   0   
      0   0   0   0   0   
      0   0   0   0   0   
      0   0   0   0   0   
      0   0   0   0   0   
      0   0   0   0   0   
      0   0   0   0   0   
      0   0   0   0   0   
      0   0   0   0   0   
      0   0   0   0   0   
      0   0   0   0   0   
      0   0   0   0   0   
      0   0   0   0   0   
      0   0   0   0   0   
      0   0   0   0   0   
      0   0   0   0   0   
      0   0   0   0   0   
      0   0   0   0   0   
      0   0   0   0   0   
      0   0   0   0   0   
      0   0   0   0   0   
      0   0   0   0   0   
      0   0   0   0   0   
      0   0   0   0   0   
      0   0   0   0   0   
      0   0   0   0   0   
      0   0   0   0   0   
      0   0   0   0   0   
      0   0   0   0   0   
      0   0   0   0   0   
      0   0   0   0   0   
      0   0   0   0   0   
      0   0   0   0   0   
      0   0   0   0   0   
      0   0   0   0   0   
      0   0   0   0   0   
      0   0   0   0   0   
      0   0   0   0   0   
      0   0   0   0   0   
      0   0   0   0   0   
      0   0   0   0   0   
      0   0   0   0   0   
      0   0   0   0   0   
      0   0   0   0   0   
      0   0   0   0   0   
      0   0   0   0   0   
      0   0   0   0   0   
      0   0   0   0   0   
      0   0   0   0   0   
      0   0   0   0   0   
      0   0   0   0   0   
      0   0   0   0   0   
      0   0   0   0   0   
      0   0   0   0   0   
      0   0   0   0   0   
      0   0   0   0   0   
      0   0   0   0   0   
      0   0   0   0   0   
      0   0   0   0   0   
      0   0   0   0   0   
      0   0   0   0   0   
      0   0   0   0   0   
      0   0   0   0   0   
      0   0   0   0   0   
      0   0   0   0   0   
      0   0   0   0   0   
      0   0   0   0   0   
      0   0   0   0   0   
      0   0   0   0   0   
      0   0   0   0   0   
      0   0   0   0   0   
      0   0   0   0   0   
      0   0   0   0   0   
      0   0   0   0   0   
      0   0   0   0   0   
      0   0   0   0   0   
      0   0   0   0   0   
      0   0   0   0   0   
      0   0   0   0   0   
      0   0   0   0   0   
      0   0   0   0   0   
      0   0   0   0   0   
      0   0   0   0   0   
      0   0   0   0   0   
      0   0   0   0   0   
      0   0   0   0   0   
      0   0   0   0   0   
      0   0   0   0   0   
      0   0   0   0   0   
      0   0   0   0   0   
      0   0   0   0   0   
      0   0   0   0   0   
      0   0   0   0   0   
      0   0   0   0   0   
      0   0   0   0   0   
      0   0   0   0   0   
      0   0   0   0   0   
      0   0   0   0   0   
      0.576870440732   0.576850046187   0.576788875136   0.576686966193   0.576544386622   
      0.57636123678   0.576137656533   0.575873833807   0.575570015501   0.575226521006   
      0.574843758607   0.574422245018   0.573962628295   0.573465714275   0.572932496621   
      0.572364190327   0.571762268389   0.571128501016   0.570464996437   0.569774242002   
      0.569059143849   0.568323063039   0.56756984568   0.566803844346   0.566029927922   
      0.565253477075   0.564480362809   0.563716906039   0.562969816829   0.562246112852   
      0.561553017689   0.560897840726   0.560287841559   0.559730082878   0.55923127669   
      0.558797629402   0.558434691663   0.558147218913   0.557939048303   0.557812997127   
      0.557770787017   0.557812997127   0.557939048303   0.558147218913   0.558434691663   
      0.558797629402   0.55923127669   0.559730082878   0.560287841559   0.560897840726   
      0.561553017689   0.562246112852   0.562969816829   0.563716906039   0.564480362809   
      0.565253477075   0.566029927922   0.566803844346   0.56756984568   0.568323063039   
      0.569059143849   0.569774242002   0.570464996437   0.571128501016   0.571762268389   
      0.572364190327   0.572932496621   0.573465714275   0.573962628295   0.574422245018   
      0.574843758607   0.575226521006   0.575570015501   0.575873833807   0.576137656533   
      0.57636123678   0.576544386622   0.576686966193   0.576788875136   0.576850046187   
      0.466579421663   0.46655122803   0.466466660633   0.466325761317   0.466128604331   
      0.465875303226   0.465566020775   0.465200982162   0.464780491757   0.4643049538   
      0.463774897366   0.463191005921   0.462554151738   0.461865435318   0.461126229746   
      0.460338229696   0.459503504401   0.458624553538   0.457704364462   0.456746468702   
      0.455754995119   0.454734716604   0.453691086825   0.452630263272   0.451559112834   
      0.450485196392   0.449416729443   0.448362516605   0.447331858962   0.44633443453   
      0.445380153542   0.444478991724   0.443640806052   0.442875138667   0.442191015446   
      0.441596746265   0.441099734113   0.440706300031   0.440421530261   0.440249151202   
      0.440191436727   0.440249151202   0.440421530261   0.440706300031   0.441099734113   
      0.441596746265   0.442191015446   0.442875138667   0.443640806052   0.444478991724   
      0.445380153542   0.44633443453   0.447331858962   0.448362516605   0.449416729443   
      0.450485196392   0.451559112834   0.452630263272   0.453691086825   0.454734716604   
      0.455754995119   0.456746468702   0.457704364462   0.458624553538   0.459503504401   
      0.460338229696   0.461126229746   0.461865435318   0.462554151738   0.463191005921   
      0.463774897366   0.4643049538   0.464780491757   0.465200982162   0.465566020775   
      0.465875303226   0.466128604331   0.466325761317   0.466466660633   0.46655122803   
      0.443313787131   0.443277132515   0.443167191285   0.442984033177   0.442727780736   
      0.442398618973   0.441996809183   0.44152270725   0.440976786778   0.44035966742   
      0.43967214879   0.43891525025   0.438090256744   0.437198770682   0.436242769536   
      0.435224668477   0.43414738688   0.433014416963   0.431829892246   0.430598652839   
      0.429326304013   0.428019263993   0.426684796618   0.425331024454   0.423966918201   
      0.422602258858   0.421247570061   0.419914019313   0.418613288345   0.417357414464   
      0.416158606426   0.415029039805   0.413980638048   0.413024846208   0.412172404778   
      0.411433130975   0.410815714495   0.410327533993   0.409974499715   0.409760926665   
      0.409689441662   0.409760926665   0.409974499715   0.410327533993   0.410815714495   
      0.411433130975   0.412172404778   0.413024846208   0.413980638048   0.415029039805   
      0.416158606426   0.417357414464   0.418613288345   0.419914019313   0.421247570061   
      0.422602258858   0.423966918201   0.425331024454   0.426684796618   0.428019263993   
      0.429326304013   0.430598652839   0.431829892246   0.433014416963   0.43414738688   
      0.435224668477   0.436242769536   0.437198770682   0.438090256744   0.43891525025   
      0.43967214879   0.44035966742   0.440976786778   0.44152270725   0.441996809183   
      0.442398618973   0.442727780736   0.442984033177   0.443167191285   0.443277132515   
      0.420316492461   0.420271184154   0.420135298341   0.419908954809   0.419592361477   
      0.419185826988   0.41868977868   0.418104786273   0.417431591606   0.416671144818   
      0.415824647255   0.414893601305   0.41387986715   0.412785726097   0.411613949773   
      0.410367873927   0.409051474974   0.407669446751   0.406227274199   0.404731300067   
      0.403188780118   0.401607922001   0.399997902866   0.398368861108   0.396731858345   
      0.395098808867   0.393482375284   0.391895830877   0.390352891024   0.388867517883   
      0.387453704088   0.386125242388   0.384895488808   0.383777127052   0.382781941455   
      0.381920604991   0.381202487738   0.380635490002   0.380225903089   0.379978299706   
      0.379895455121   0.379978299706   0.380225903089   0.380635490002   0.381202487738   
      0.381920604991   0.382781941455   0.383777127052   0.384895488808   0.386125242388   
      0.387453704088   0.388867517883   0.390352891024   0.391895830877   0.393482375284   
      0.395098808867   0.396731858345   0.398368861108   0.399997902866   0.401607922001   
      0.403188780118   0.404731300067   0.406227274199   0.407669446751   0.409051474974   
      0.410367873927   0.411613949773   0.412785726097   0.41387986715   0.414893601305   
      0.415824647255   0.416671144818   0.417431591606   0.418104786273   0.41868977868   
      0.419185826988   0.419592361477   0.419908954809   0.420135298341   0.420271184154   
      0.402265472692   0.402213389959   0.402057201199   0.401797087697   0.401433361539   
      0.400966480707   0.400397070567   0.399725952045   0.398954176814   0.398083069797   
      0.397114279143   0.396049833691   0.394892207599   0.393644391421   0.392309968387   
      0.390893193991   0.38939907627   0.387833453402   0.386203064486   0.384515608777   
      0.382779788198   0.381005327894   0.37920296987   0.377384435578   0.375562354527   
      0.373750157731   0.371961936738   0.370212271143   0.368516029459   0.366888149959   
      0.365343409256   0.363896186943   0.362560234457   0.361348455552   0.360272704462   
      0.359343606215   0.358570401874   0.357960819875   0.357520973369   0.357255282582   
      0.357166420792   0.357255282582   0.357520973369   0.357960819875   0.358570401874   
      0.359343606215   0.360272704462   0.361348455552   0.362560234457   0.363896186943   
      0.365343409256   0.366888149959   0.368516029459   0.370212271143   0.371961936738   
      0.373750157731   0.375562354527   0.377384435578   0.37920296987   0.381005327894   
      0.382779788198   0.384515608777   0.386203064486   0.387833453402   0.38939907627   
      0.390893193991   0.392309968387   0.393644391421   0.394892207599   0.396049833691   
      0.397114279143   0.398083069797   0.398954176814   0.399725952045   0.400397070567   
      0.400966480707   0.401433361539   0.401797087697   0.402057201199   0.402213389959   
      0.388051923344   0.387995040253   0.387824470215   0.387540454312   0.38714340566   
      0.386633926545   0.386012832748   0.385281185308   0.384440329996   0.383491944673   
      0.38243809455   0.381281295089   0.38002458192   0.378671586599   0.377226616427   
      0.375694735793   0.374081845706   0.372394757375   0.370641255023   0.368830142566   
      0.366971268657   0.365075524793   0.363154811969   0.361221972617   0.359290686378   
      0.357375330387   0.355490807111   0.35365234503   0.3518752794   0.350174821697   
      0.348565826927   0.347062567764   0.345678523495   0.344426190026   0.343316915211   
      0.342360761482   0.341566395746   0.340941004741   0.340490232892   0.340218139093   
      0.340127168888   0.340218139093   0.340490232892   0.340941004741   0.341566395746   
      0.342360761482   0.343316915211   0.344426190026   0.345678523495   0.347062567764   
      0.348565826927   0.350174821697   0.3518752794   0.35365234503   0.355490807111   
      0.357375330387   0.359290686378   0.361221972617   0.363154811969   0.365075524793   
      0.366971268657   0.368830142566   0.370641255023   0.372394757375   0.374081845706   
      0.375694735793   0.377226616427   0.378671586599   0.38002458192   0.381281295089   
      0.38243809455   0.383491944673   0.384440329996   0.385281185308   0.386012832748   
      0.386633926545   0.38714340566   0.387540454312   0.387824470215   0.387995040253   
      0.377746126993   0.377686166127   0.377506379118   0.377207056424   0.376788694524   
      0.376252014641   0.375597989254   0.374827876601   0.373943263355   0.37294611555   
      0.371838837564   0.370624338692   0.369306106326   0.367888284178   0.366375753271   
      0.364774212578   0.363090255404   0.361331436748   0.359506326316   0.357624541475   
      0.355696754505   0.353734669111   0.351750962283   0.349759189353   0.347773652259   
      0.345809233567   0.343881201282   0.342004991793   0.340195979968   0.338469246363   
      0.336839351484   0.3353201261   0.333924484853   0.332664268086   0.331550114209   
      0.330591362352   0.329795982858   0.32917053146   0.32872012202   0.328448412404   
      0.328357598508   0.328448412404   0.32872012202   0.32917053146   0.329795982858   
      0.330591362352   0.331550114209   0.332664268086   0.333924484853   0.3353201261   
      0.336839351484   0.338469246363   0.340195979968   0.342004991793   0.343881201282   
      0.345809233567   0.347773652259   0.349759189353   0.351750962283   0.353734669111   
      0.355696754505   0.357624541475   0.359506326316   0.361331436748   0.363090255404   
      0.364774212578   0.366375753271   0.367888284178   0.369306106326   0.370624338692   
      0.371838837564   0.37294611555   0.373943263355   0.374827876601   0.375597989254   
      0.376252014641   0.376788694524   0.377207056424   0.377506379118   0.377686166127   
      0.371110233177   0.371048489116   0.370863363996   0.37055518294   0.370124500947   
      0.369572122736   0.368899130768   0.368106921638   0.367197250926   0.366172286478   
      0.365034669796   0.363787584854   0.362434833097   0.360980912755   0.359431099813   
      0.357791527109   0.356069257215   0.354272343959   0.352409876921   0.350492003023   
      0.348529919613   0.346535834304   0.344522888272   0.342505041787   0.340496923208   
      0.33851364538   0.336570595951   0.334683210332   0.332866737478   0.331136009197   
      0.329505223205   0.32798774867   0.326595960709   0.325341107596   0.324233211479   
      0.323281000747   0.322491869918   0.321871861369   0.321425662419   0.321156611253   
      0.321066705843   0.321156611253   0.321425662419   0.321871861369   0.322491869918   
      0.323281000747   0.324233211479   0.325341107596   0.326595960709   0.32798774867   
      0.329505223205   0.331136009197   0.332866737478   0.334683210332   0.336570595951   
      0.33851364538   0.340496923208   0.342505041787   0.344522888272   0.346535834304   
      0.348529919613   0.350492003023   0.352409876921   0.354272343959   0.356069257215   
      0.357791527109   0.359431099813   0.360980912755   0.362434833097   0.363787584854   
      0.365034669796   0.366172286478   0.367197250926   0.368106921638   0.368899130768   
      0.369572122736   0.370124500947   0.37055518294   0.370863363996   0.371048489116   
      0.367878579595   0.367816025881   0.36762847771   0.367316278039   0.366880011982   
      0.366320527232   0.365638962864   0.364836786688   0.363915841211   0.362878398088   
      0.361727220691   0.360465633976   0.359097600272   0.357627798958   0.356061707146   
      0.354405677653   0.352667009673   0.350854006823   0.348976016749   0.34704344634   
      0.345067747025   0.343061365603   0.341037657698   0.339010763128   0.336995445093   
      0.335006897871   0.333060530297   0.331171734454   0.329355650271   0.327626937077   
      0.32599956236   0.324486616262   0.323100157796   0.321851095858   0.320749105051   
      0.319802573599   0.319018578395   0.318402880771   0.317959935864   0.317692908562   
      0.317603689832   0.317692908562   0.317959935864   0.318402880771   0.319018578395   
      0.319802573599   0.320749105051   0.321851095858   0.323100157796   0.324486616262   
      0.32599956236   0.327626937077   0.329355650271   0.331171734454   0.333060530297   
      0.335006897871   0.336995445093   0.339010763128   0.341037657698   0.343061365603   
      0.345067747025   0.34704344634   0.348976016749   0.350854006823   0.352667009673   
      0.354405677653   0.356061707146   0.357627798958   0.359097600272   0.360465633976   
      0.361727220691   0.362878398088   0.363915841211   0.364836786688   0.365638962864   
      0.366320527232   0.366880011982   0.367316278039   0.36762847771   0.367816025881   
      0.367878579595   0.367816025881   0.36762847771   0.367316278039   0.366880011982   
      0.366320527232   0.365638962864   0.364836786688   0.363915841211   0.362878398088   
      0.361727220691   0.360465633976   0.359097600272   0.357627798958   0.356061707146   
      0.354405677653   0.352667009673   0.350854006823   0.348976016749   0.34704344634   
      0.345067747025   0.343061365603   0.341037657698   0.339010763128   0.336995445093   
      0.335006897871   0.333060530297   0.331171734454   0.329355650271   0.327626937077   
      0.32599956236   0.324486616262   0.323100157796   0.321851095858   0.320749105051   
      0.319802573599   0.319018578395   0.318402880771   0.317959935864   0.317692908562   
      0.317603689832   0.317692908562   0.317959935864   0.318402880771   0.319018578395   
      0.319802573599   0.320749105051   0.321851095858   0.323100157796   0.324486616262   
      0.32599956236   0.327626937077   0.329355650271   0.331171734454   0.333060530297   
      0.335006897871   0.336995445093   0.339010763128   0.341037657698   0.343061365603   
      0.345067747025   0.34704344634   0.348976016749   0.350854006823   0.352667009673   
      0.354405677653   0.356061707146   0.357627798958   0.359097600272   0.360465633976   
      0.361727220691   0.362878398088   0.363915841211   0.364836786688   0.365638962864   
      0.366320527232   0.366880011982   0.367316278039   0.36762847771   0.367816025881   
      0.371110233177   0.371048489116   0.370863363996   0.37055518294   0.370124500947   
      0.369572122736   0.368899130768   0.368106921638   0.367197250926   0.366172286478   
      0.365034669796   0.363787584854   0.362434833097   0.360980912755   0.359431099813   
      0.357791527109   0.356069257215   0.354272343959   0.352409876921   0.350492003023   
      0.348529919613   0.346535834304   0.344522888272   0.342505041787   0.340496923208   
      0.33851364538   0.336570595951   0.334683210332   0.332866737478   0.331136009197   
      0.329505223205   0.32798774867   0.326595960709   0.325341107596   0.324233211479   
      0.323281000747   0.322491869918   0.321871861369   0.321425662419   0.321156611253   
      0.321066705843   0.321156611253   0.321425662419   0.321871861369   0.322491869918   
      0.323281000747   0.324233211479   0.325341107596   0.326595960709   0.32798774867   
      0.329505223205   0.331136009197   0.332866737478   0.334683210332   0.336570595951   
      0.33851364538   0.340496923208   0.342505041787   0.344522888272   0.346535834304   
      0.348529919613   0.350492003023   0.352409876921   0.354272343959   0.356069257215   
      0.357791527109   0.359431099813   0.360980912755   0.362434833097   0.363787584854   
      0.365034669796   0.366172286478   0.367197250926   0.368106921638   0.368899130768   
      0.369572122736   0.370124500947   0.37055518294   0.370863363996   0.371048489116   
      0.377746126993   0.377686166127   0.377506379118   0.377207056424   0.376788694524   
      0.376252014641   0.375597989254   0.374827876601   0.373943263355   0.37294611555   
      0.371838837564   0.370624338692   0.369306106326   0.367888284178   0.366375753271   
      0.364774212578   0.363090255404   0.361331436748   0.359506326316   0.357624541475   
      0.355696754505   0.353734669111   0.351750962283   0.349759189353   0.347773652259   
      0.345809233567   0.343881201282   0.342004991793   0.340195979968   0.338469246363   
      0.336839351484   0.3353201261   0.333924484853   0.332664268086   0.331550114209   
      0.330591362352   0.329795982858   0.32917053146   0.32872012202   0.328448412404   
      0.328357598508   0.328448412404   0.32872012202   0.32917053146   0.329795982858   
      0.330591362352   0.331550114209   0.332664268086   0.333924484853   0.3353201261   
      0.336839351484   0.338469246363   0.340195979968   0.342004991793   0.343881201282   
      0.345809233567   0.347773652259   0.349759189353   0.351750962283   0.353734669111   
      0.355696754505   0.357624541475   0.359506326316   0.361331436748   0.363090255404   
      0.364774212578   0.366375753271   0.367888284178   0.369306106326   0.370624338692   
      0.371838837564   0.37294611555   0.373943263355   0.374827876601   0.375597989254   
      0.376252014641   0.376788694524   0.377207056424   0.377506379118   0.377686166127   
      0.388051923344   0.387995040253   0.387824470215   0.387540454312   0.38714340566   
      0.386633926545   0.386012832748   0.385281185308   0.384440329996   0.383491944673   
      0.38243809455   0.381281295089   0.38002458192   0.378671586599   0.377226616427   
      0.375694735793   0.374081845706   0.372394757375   0.370641255023   0.368830142566   
      0.366971268657   0.365075524793   0.363154811969   0.361221972617   0.359290686378   
      0.357375330387   0.355490807111   0.35365234503   0.3518752794   0.350174821697   
      0.348565826927   0.347062567764   0.345678523495   0.344426190026   0.343316915211   
      0.342360761482   0.341566395746   0.340941004741   0.340490232892   0.340218139093   
      0.340127168888   0.340218139093   0.340490232892   0.340941004741   0.341566395746   
      0.342360761482   0.343316915211   0.344426190026   0.345678523495   0.347062567764   
      0.348565826927   0.350174821697   0.3518752794   0.35365234503   0.355490807111   
      0.357375330387   0.359290686378   0.361221972617   0.363154811969   0.365075524793   
      0.366971268657   0.368830142566   0.370641255023   0.372394757375   0.374081845706   
      0.375694735793   0.377226616427   0.378671586599   0.38002458192   0.381281295089   
      0.38243809455   0.383491944673   0.384440329996   0.385281185308   0.386012832748   
      0.386633926545   0.38714340566   0.387540454312   0.387824470215   0.387995040253   
      0.402265472692   0.402213389959   0.402057201199   0.401797087697   0.401433361539   
      0.400966480707   0.400397070567   0.399725952045   0.398954176814   0.398083069797   
      0.397114279143   0.396049833691   0.394892207599   0.393644391421   0.392309968387   
      0.390893193991   0.38939907627   0.387833453402   0.386203064486   0.384515608777   
      0.382779788198   0.381005327894   0.37920296987   0.377384435578   0.375562354527   
      0.373750157731   0.371961936738   0.370212271143   0.368516029459   0.366888149959   
      0.365343409256   0.363896186943   0.362560234457   0.361348455552   0.360272704462   
      0.359343606215   0.358570401874   0.357960819875   0.357520973369   0.357255282582   
      0.357166420792   0.357255282582   0.357520973369   0.357960819875   0.358570401874   
      0.359343606215   0.360272704462   0.361348455552   0.362560234457   0.363896186943   
      0.365343409256   0.366888149959   0.368516029459   0.370212271143   0.371961936738   
      0.373750157731   0.375562354527   0.377384435578   0.37920296987   0.381005327894   
      0.382779788198   0.384515608777   0.386203064486   0.387833453402   0.38939907627   
      0.390893193991   0.392309968387   0.393644391421   0.394892207599   0.396049833691   
      0.397114279143   0.398083069797   0.398954176814   0.399725952045   0.400397070567   
      0.400966480707   0.401433361539   0.401797087697   0.402057201199   0.402213389959   
      0.420316492461   0.420271184154   0.420135298341   0.419908954809   0.419592361477   