<?xml version="1.0"?>
<VTKFile type="ImageData" version="0.1" byte_order="LittleEndian">
  <ImageData WholeExtent="0 79 0 19 0 19" Origin="0 0 0" Spacing="1 1 1">
  <Piece Extent="0 79 0 19 0 19">
    <PointData Scalars="density">
       <DataArray type="Float32" Name="bluedensity" NumberOfComponents="1" format="ascii">
      0   0   0   0   0   
      0   0   0   0   0   
      0   0   0   0   0   
      0   0   0   0   0   
      0   0   0   0   0   
      0   0   0   0   0   
      0   0   0   0   0   
      0   0   0   0   0   
      0   0   0   0   0   
      0   0   0   0   0   
      0   0   0   0   0   
      0   0   0   0   0   
      0   0   0   0   0   
      0   0   0   0   0   
      0   0   0   0   0   
      0   0   0   0   0   
      0   0   0   0   0   
      0   0   0   0   0   
      0   0   0   0   0   
      0   0   0   0   0   
      0   0   0   0   0   
      0   0   0   0   0   
      0   0   0   0   0   
      0   0   0   0   0   
      0   0   0   0   0   
      0   0   0   0   0   
      0   0   0   0   0   
      0   0   0   0   0   
      0   0   0   0   0   
      0   0   0   0   0   
      0   0   0   0   0   
      0   0   0   0   0   
      0   0   0   0   0   
      0   0   0   0   0   
      0   0   0   0   0   
      0   0   0   0   0   
      0   0   0   0   0   
      0   0   0   0   0   
      0   0   0   0   0   
      0   0   0   0   0   
      0   0   0   0   0   
      0   0   0   0   0   
      0   0   0   0   0   
      0   0   0   0   0   
      0   0   0   0   0   
      0   0   0   0   0   
      0   0   0   0   0   
      0   0   0   0   0   
      0   0   0   0   0   
      0   0   0   0   0   
      0   0   0   0   0   
      0   0   0   0   0   
      0   0   0   0   0   
      0   0   0   0   0   
      0   0   0   0   0   
      0   0   0   0   0   
      0   0   0   0   0   
      0   0   0   0   0   
      0   0   0   0   0   
      0   0   0   0   0   
      0   0   0   0   0   
      0   0   0   0   0   
      0   0   0   0   0   
      0   0   0   0   0   
      0   0   0   0   0   
      0   0   0   0   0   
      0   0   0   0   0   
      0   0   0   0   0   
      0   0   0   0   0   
      0   0   0   0   0   
      0   0   0   0   0   
      0   0   0   0   0   
      0   0   0   0   0   
      0   0   0   0   0   
      0   0   0   0   0   
      0   0   0   0   0   
      0   0   0   0   0   
      0   0   0   0   0   
      0   0   0   0   0   
      0   0   0   0   0   
      0   0   0   0   0   
      0   0   0   0   0   
      0   0   0   0   0   
      0   0   0   0   0   
      0   0   0   0   0   
      0   0   0   0   0   
      0   0   0   0   0   
      0   0   0   0   0   
      0   0   0   0   0   
      0   0   0   0   0   
      0   0   0   0   0   
      0   0   0   0   0   
      0   0   0   0   0   
      0   0   0   0   0   
      0   0   0   0   0   
      0   0   0   0   0   
      0   0   0   0   0   
      0   0   0   0   0   
      0   0   0   0   0   
      0   0   0   0   0   
      0   0   0   0   0   
      0   0   0   0   0   
      0   0   0   0   0   
      0   0   0   0   0   
      0   0   0   0   0   
      0   0   0   0   0   
      0   0   0   0   0   
      0   0   0   0   0   
      0   0   0   0   0   
      0   0   0   0   0   
      0   0   0   0   0   
      0   0   0   0   0   
      0   0   0   0   0   
      0   0   0   0   0   
      0   0   0   0   0   
      0   0   0   0   0   
      0   0   0   0   0   
      0   0   0   0   0   
      0   0   0   0   0   
      0   0   0   0   0   
      0   0   0   0   0   
      0   0   0   0   0   
      0   0   0   0   0   
      0   0   0   0   0   
      0   0   0   0   0   
      0   0   0   0   0   
      0   0   0   0   0   
      0   0   0   0   0   
      0   0   0   0   0   
      0   0   0   0   0   
      0   0   0   0   0   
      0   0   0   0   0   
      0   0   0   0   0   
      0   0   0   0   0   
      0   0   0   0   0   
      0   0   0   0   0   
      0   0   0   0   0   
      0   0   0   0   0   
      0   0   0   0   0   
      0   0   0   0   0   
      0   0   0   0   0   
      0   0   0   0   0   
      0   0   0   0   0   
      0   0   0   0   0   
      0   0   0   0   0   
      0   0   0   0   0   
      0   0   0   0   0   
      0   0   0   0   0   
      0   0   0   0   0   
      0   0   0   0   0   
      0   0   0   0   0   
      0   0   0   0   0   
      0   0   0   0   0   
      0   0   0   0   0   
      0   0   0   0   0   
      0   0   0   0   0   
      0   0   0   0   0   
      0   0   0   0   0   
      0   0   0   0   0   
      0   0   0   0   0   
      0   0   0   0   0   
      0   0   0   0   0   
      0   0   0   0   0   
      0   0   0   0   0   
      0   0   0   0   0   
      0   0   0   0   0   
      0   0   0   0   0   
      0   0   0   0   0   
      0   0   0   0   0   
      0   0   0   0   0   
      0   0   0   0   0   
      0   0   0   0   0   
      0   0   0   0   0   
      0   0   0   0   0   
      0   0   0   0   0   
      0   0   0   0   0   
      0   0   0   0   0   
      0   0   0   0   0   
      0   0   0   0   0   
      0   0   0   0   0   
      0   0   0   0   0   
      0   0   0   0   0   
      0   0   0   0   0   
      0   0   0   0   0   
      0   0   0   0   0   
      0   0   0   0   0   
      0   0   0   0   0   
      0   0   0   0   0   
      0   0   0   0   0   
      0   0   0   0   0   
      0   0   0   0   0   
      0   0   0   0   0   
      0   0   0   0   0   
      0   0   0   0   0   
      0   0   0   0   0   
      0   0   0   0   0   
      0   0   0   0   0   
      0   0   0   0   0   
      0   0   0   0   0   
      0   0   0   0   0   
      0   0   0   0   0   
      0   0   0   0   0   
      0   0   0   0   0   
      0   0   0   0   0   
      0   0   0   0   0   
      0   0   0   0   0   
      0   0   0   0   0   
      0   0   0   0   0   
      0   0   0   0   0   
      0   0   0   0   0   
      0   0   0   0   0   
      0   0   0   0   0   
      0   0   0   0   0   
      0   0   0   0   0   
      0   0   0   0   0   
      0   0   0   0   0   
      0   0   0   0   0   
      0   0   0   0   0   
      0   0   0   0   0   
      0   0   0   0   0   
      0   0   0   0   0   
      0   0   0   0   0   
      0   0   0   0   0   
      0   0   0   0   0   
      0   0   0   0   0   
      0   0   0   0   0   
      0   0   0   0   0   
      0   0   0   0   0   
      0   0   0   0   0   
      0   0   0   0   0   
      0   0   0   0   0   
      0   0   0   0   0   
      0   0   0   0   0   
      0   0   0   0   0   
      0   0   0   0   0   
      0   0   0   0   0   
      0   0   0   0   0   
      0   0   0   0   0   
      0   0   0   0   0   
      0   0   0   0   0   
      0   0   0   0   0   
      0   0   0   0   0   
      0   0   0   0   0   
      0   0   0   0   0   
      0   0   0   0   0   
      0   0   0   0   0   
      0   0   0   0   0   
      0   0   0   0   0   
      0   0   0   0   0   
      0   0   0   0   0   
      0   0   0   0   0   
      0   0   0   0   0   
      0   0   0   0   0   
      0   0   0   0   0   
      0   0   0   0   0   
      0   0   0   0   0   
      0   0   0   0   0   
      0   0   0   0   0   
      0   0   0   0   0   
      0   0   0   0   0   
      0   0   0   0   0   
      0   0   0   0   0   
      0   0   0   0   0   
      0   0   0   0   0   
      0   0   0   0   0   
      0   0   0   0   0   
      0   0   0   0   0   
      0   0   0   0   0   
      0   0   0   0   0   
      0   0   0   0   0   
      0   0   0   0   0   
      0   0   0   0   0   
      0   0   0   0   0   
      0   0   0   0   0   
      0   0   0   0   0   
      0   0   0   0   0   
      0   0   0   0   0   
      0   0   0   0   0   
      0   0   0   0   0   
      0   0   0   0   0   
      0   0   0   0   0   
      0   0   0   0   0   
      0   0   0   0   0   
      0   0   0   0   0   
      0   0   0   0   0   
      0   0   0   0   0   
      0   0   0   0   0   
      0   0   0   0   0   
      0   0   0   0   0   
      0   0   0   0   0   
      0   0   0   0   0   
      0   0   0   0   0   
      0   0   0   0   0   
      0   0   0   0   0   
      0   0   0   0   0   
      0   0   0   0   0   
      0   0   0   0   0   
      0   0   0   0   0   
      0   0   0   0   0   
      0   0   0   0   0   
      0   0   0   0   0   
      0   0   0   0   0   
      0   0   0   0   0   
      0   0   0   0   0   
      0   0   0   0   0   
      0   0   0   0   0   
      0   0   0   0   0   
      0   0   0   0   0   
      0   0   0   0   0   
      0   0   0   0   0   
      0   0   0   0   0   
      0   0   0   0   0   
      0   0   0   0   0   
      0   0   0   0   0   
      0   0   0   0   0   
      0   0   0   0   0   
      0   0   0   0   0   
      0   0   0   0   0   
      0   0   0   0   0   
      0   0   0   0   0   
      0   0   0   0   0   
      0   0   0   0   0   
      0   0   0   0   0   
      0   0   0   0   0   
      0   0   0   0   0   
      0   0   0   0   0   
      0   0   0   0   0   
      0   0   0   0   0   
      0   0   0   0   0   
      0   0   0   0   0   
      0   0   0   0   0   
      0   0   0   0   0   
      0   0   0   0   0   
      0   0   0   0   0   
      0   0   0   0   0   
      0   0   0   0   0   
      0.577325196693   0.577303762416   0.57723946739   0.577132335896   0.576982411322   
      0.576789760658   0.576554481012   0.576276708376   0.575956628913   0.575594493093   
      0.575190633038   0.574745483445   0.57425960643   0.573733720593   0.573168734484   
      0.572565784456   0.571926276688   0.57125193279   0.570544838029   0.569807490758   
      0.569042851101   0.568254386471   0.567446110999   0.566622615609   0.565789085241   
      0.56495129974   0.564115615176   0.563288922936   0.562478584742   0.561692342859   
      0.560938206059   0.560224313296   0.55955877846   0.558949520891   0.558404087419   
      0.557929472502   0.557531943483   0.557216878031   0.556988620528   0.556850363452   
      0.556804058814   0.556850363452   0.556988620528   0.557216878031   0.557531943483   
      0.557929472502   0.558404087419   0.558949520891   0.55955877846   0.560224313296   
      0.560938206059   0.561692342859   0.562478584742   0.563288922936   0.564115615176   
      0.56495129974   0.565789085241   0.566622615609   0.567446110999   0.568254386471   
      0.569042851101   0.569807490758   0.570544838029   0.57125193279   0.571926276688   
      0.572565784456   0.573168734484   0.573733720593   0.57425960643   0.574745483445   
      0.575190633038   0.575594493093   0.575956628913   0.576276708376   0.576554481012   
      0.576789760658   0.576982411322   0.577132335896   0.57723946739   0.577303762416   
      0.467240666029   0.467211054567   0.467122226325   0.466974201089   0.466767016421   
      0.466500734688   0.46617545325   0.465791318105   0.465348541397   0.464847423243   
      0.464288378353   0.463671967937   0.462998937323   0.462270259583   0.461487185297   
      0.46065129825   0.459764576508   0.45882945778   0.457848907425   0.456826486778   
      0.455766418794   0.454673647374   0.453553886166   0.452413652289   0.451260280337   
      0.450101912237   0.448947459156   0.447806532654   0.446689343593   0.445606568968   
      0.444569188532   0.443588294935   0.442674882701   0.441839622781   0.441092630428   
      0.44044323473   0.439899758254   0.439469314956   0.439157633794   0.438968914507   
      0.438905720766   0.438968914507   0.439157633794   0.439469314956   0.439899758254   
      0.44044323473   0.441092630428   0.441839622781   0.442674882701   0.443588294935   
      0.444569188532   0.445606568968   0.446689343593   0.447806532654   0.448947459156   
      0.450101912237   0.451260280337   0.452413652289   0.453553886166   0.454673647374   
      0.455766418794   0.456826486778   0.457848907425   0.45882945778   0.459764576508   
      0.46065129825   0.461487185297   0.462270259583   0.462998937323   0.463671967937   
      0.464288378353   0.464847423243   0.465348541397   0.465791318105   0.46617545325   
      0.466500734688   0.466767016421   0.466974201089   0.467122226325   0.467211054567   
      0.444196757487   0.44415824129   0.444042705898   0.443850192852   0.443580777903   
      0.443234581   0.442811780683   0.442312633269   0.441737497321   0.441086863898   
      0.440361393162   0.439561957805   0.438689693693   0.437746057887   0.4367328939   
      0.435652503599   0.434507724608   0.433302011396   0.432039517451   0.430725175153   
      0.429364769174   0.427964998547   0.426533522109   0.425078981864   0.423610999072   
      0.422140138555   0.420677837892   0.41923629975   0.417828347476   0.41646724615   
      0.415166493287   0.413939585242   0.412799766746   0.411759772013   0.410831566196   
      0.410026095862   0.409353056559   0.408820684591   0.408435578984   0.408202558401   
      0.408124556532   0.408202558401   0.408435578984   0.408820684591   0.409353056559   
      0.410026095862   0.410831566196   0.411759772013   0.412799766746   0.413939585242   
      0.415166493287   0.41646724615   0.417828347476   0.41923629975   0.420677837892   
      0.422140138555   0.423610999072   0.425078981864   0.426533522109   0.427964998547   
      0.429364769174   0.430725175153   0.432039517451   0.433302011396   0.434507724608   
      0.435652503599   0.4367328939   0.437746057887   0.438689693693   0.439561957805   
      0.440361393162   0.441086863898   0.441737497321   0.442312633269   0.442811780683   
      0.443234581   0.443580777903   0.443850192852   0.444042705898   0.44415824129   
      0.421428476466   0.421380821662   0.421237885476   0.420999755157   0.420666584772   
      0.420238608423   0.419716159223   0.419099694464   0.418389827497   0.417587366866   
      0.41669336321   0.415709164345   0.414636478713   0.413477447074   0.412234721821   
      0.410911552725   0.409511877128   0.408040411792   0.40650274266   0.404905407924   
      0.403255968999   0.401563063493   0.399836434065   0.398086927394   0.396326458272   
      0.394567935243   0.392825146074   0.39111260355   0.389445354471   0.387838756997   
      0.386308233478   0.384869007253   0.383535832723   0.382322727946   0.38124271839   
      0.38030759931   0.379527722674   0.378911812998   0.378466814907   0.378197773992   
      0.378107751643   0.378197773992   0.378466814907   0.378911812998   0.379527722674   
      0.38030759931   0.38124271839   0.382322727946   0.383535832723   0.384869007253   
      0.386308233478   0.387838756997   0.389445354471   0.39111260355   0.392825146074   
      0.394567935243   0.396326458272   0.398086927394   0.399836434065   0.401563063493   
      0.403255968999   0.404905407924   0.40650274266   0.408040411792   0.409511877128   
      0.410911552725   0.412234721821   0.413477447074   0.414636478713   0.415709164345   
      0.41669336321   0.417587366866   0.418389827497   0.419099694464   0.419716159223   
      0.420238608423   0.420666584772   0.420999755157   0.421237885476   0.421380821662   
      0.403559685208   0.403504844254   0.403340369434   0.403066408009   0.402683215942   
      0.402191173952   0.401590810475   0.40088283199   0.400068161195   0.399147983557   
      0.398123802602   0.396997504209   0.395771429755   0.394448457572   0.393032091514   
      0.391526554641   0.389936885182   0.388269030882   0.386529936912   0.384727621644   
      0.382871233963   0.380971085574   0.379038652074   0.377086537426   0.375128398054   
      0.37317882486   0.371253184024   0.369367420104   0.367537827596   0.365780799204   
      0.364112560573   0.362548901818   0.361104915828   0.359794752209   0.35863139384   
      0.357626460898   0.356790044889   0.356130573206   0.355654703126   0.355367243141   
      0.355271099133   0.355367243141   0.355654703126   0.356130573206   0.356790044889   
      0.357626460898   0.35863139384   0.359794752209   0.361104915828   0.362548901818   
      0.364112560573   0.365780799204   0.367537827596   0.369367420104   0.371253184024   
      0.37317882486   0.375128398054   0.377086537426   0.379038652074   0.380971085574   
      0.382871233963   0.384727621644   0.386529936912   0.388269030882   0.389936885182   
      0.391526554641   0.393032091514   0.394448457572   0.395771429755   0.396997504209   
      0.398123802602   0.399147983557   0.400068161195   0.40088283199   0.401590810475   
      0.402191173952   0.402683215942   0.403066408009   0.403340369434   0.403504844254   
      0.389477378571   0.389417422104   0.389237620575   0.388938181205   0.388519461468   
      0.387981987509   0.387326480421   0.386553890794   0.385665442013   0.384662682687   
      0.383547548465   0.382322433199   0.380990268991   0.379554614051   0.378019746536   
      0.376390761613   0.374673667967   0.372875478934   0.371004292446   0.369069353256   
      0.367081090555   0.365051124258   0.362992234123   0.360918287383   0.358844122861   
      0.356785392245   0.354758362255   0.352779684359   0.350866141188   0.349034380531   
      0.347300648459   0.345680532756   0.344188726325   0.342838817997   0.341643115339   
      0.340612501164   0.339756322735   0.339082310514   0.338596521843   0.338303304367   
      0.33820527415   0.338303304367   0.338596521843   0.339082310514   0.339756322735   
      0.340612501164   0.341643115339   0.342838817997   0.344188726325   0.345680532756   
      0.347300648459   0.349034380531   0.350866141188   0.352779684359   0.354758362255   
      0.356785392245   0.358844122861   0.360918287383   0.362992234123   0.365051124258   
      0.367081090555   0.369069353256   0.371004292446   0.372875478934   0.374673667967   
      0.376390761613   0.378019746536   0.379554614051   0.380990268991   0.382322433199   
      0.383547548465   0.384662682687   0.385665442013   0.386553890794   0.387326480421   
      0.387981987509   0.388519461468   0.388938181205   0.389237620575   0.389417422104   
      0.379257137143   0.379193885027   0.379004213139   0.378688378849   0.378246824475   
      0.377680197577   0.376989379851   0.376175524988   0.375240105907   0.374184971636   
      0.373012413916   0.371725243228   0.370326873408   0.368821413312   0.367213763103   
      0.365509711695   0.363716030821   0.36184056008   0.359892276469   0.357881341285   
      0.355819117274   0.353718149484   0.35159210468   0.34945566631   0.34732438482   
      0.345214486345   0.343142646095   0.341125735703   0.339180556035   0.33732356806   
      0.335570634321   0.33393678216   0.332435997435   0.331081054356   0.329883383584   
      0.328852977472   0.327998328448   0.327326394552   0.326842584951   0.326550758097   
      0.326453225827   0.326550758097   0.326842584951   0.327326394552   0.327998328448   
      0.328852977472   0.329883383584   0.331081054356   0.332435997435   0.33393678216   
      0.335570634321   0.33732356806   0.339180556035   0.341125735703   0.343142646095   
      0.345214486345   0.34732438482   0.34945566631   0.35159210468   0.353718149484   
      0.355819117274   0.357881341285   0.359892276469   0.36184056008   0.363716030821   
      0.365509711695   0.367213763103   0.368821413312   0.370326873408   0.371725243228   
      0.373012413916   0.374184971636   0.375240105907   0.376175524988   0.376989379851   
      0.377680197577   0.378246824475   0.378688378849   0.379004213139   0.379193885027   
      0.372671528391   0.372606358228   0.372410943914   0.372085578231   0.37163076341   
      0.371047232779   0.370335981488   0.369498306701   0.368535857547   0.367450695034   
      0.366245361827   0.364922961385   0.363487245318   0.361942707059   0.360294678948   
      0.35854942877   0.356714250622   0.354797543953   0.352808873785   0.350759004737   
      0.348659901673   0.346524690748   0.34436757641   0.342203712497   0.340049028729   
      0.337920017414   0.335833488595   0.3338063047   0.331855107663   0.329996052116   
      0.328244557477   0.326615089753   0.325120980747   0.323774288768   0.322585701073   
      0.321564474868   0.320718410856   0.320053851499   0.319575695275   0.319287418347   
      0.319191096061   0.319287418347   0.319575695275   0.320053851499   0.320718410856   
      0.321564474868   0.322585701073   0.323774288768   0.325120980747   0.326615089753   
      0.328244557477   0.329996052116   0.331855107663   0.3338063047   0.335833488595   
      0.337920017414   0.340049028729   0.342203712497   0.34436757641   0.346524690748   
      0.348659901673   0.350759004737   0.352808873785   0.354797543953   0.356714250622   
      0.35854942877   0.360294678948   0.361942707059   0.363487245318   0.364922961385   
      0.366245361827   0.367450695034   0.368535857547   0.369498306701   0.370335981488   
      0.371047232779   0.37163076341   0.372085578231   0.372410943914   0.372606358228   
      0.369462936103   0.369396892086   0.369198862252   0.368869157651   0.368408311437   
      0.367817101209   0.36709658071   0.366248121212   0.365273462875   0.364174776191   
      0.362954733354   0.361616588899   0.360164268332   0.358602462608   0.356936725348   
      0.355173568514   0.353320551163   0.351386354827   0.349380838329   0.347315064516   
      0.345201291781   0.343052924357   0.340884417384   0.338711135533   0.33654916734   
      0.334415101029   0.332325771021   0.330297987106   0.328348259935   0.326492536825   
      0.324745960768   0.323122663129   0.321635597112   0.320296415195   0.31911538977   
      0.318101372724   0.317261786995   0.316602641354   0.316128559013   0.315842810932   
      0.315747345856   0.315842810932   0.316128559013   0.316602641354   0.317261786995   
      0.318101372724   0.31911538977   0.320296415195   0.321635597112   0.323122663129   
      0.324745960768   0.326492536825   0.328348259935   0.330297987106   0.332325771021   
      0.334415101029   0.33654916734   0.338711135533   0.340884417384   0.343052924357   
      0.345201291781   0.347315064516   0.349380838329   0.351386354827   0.353320551163   
      0.355173568514   0.356936725348   0.358602462608   0.360164268332   0.361616588899   
      0.362954733354   0.364174776191   0.365273462875   0.366248121212   0.36709658071   
      0.367817101209   0.368408311437   0.368869157651   0.369198862252   0.369396892086   
      0.369462936103   0.369396892086   0.369198862252   0.368869157651   0.368408311437   
      0.367817101209   0.36709658071   0.366248121212   0.365273462875   0.364174776191   
      0.362954733354   0.361616588899   0.360164268332   0.358602462608   0.356936725348   
      0.355173568514   0.353320551163   0.351386354827   0.349380838329   0.347315064516   
      0.345201291781   0.343052924357   0.340884417384   0.338711135533   0.33654916734   
      0.334415101029   0.332325771021   0.330297987106   0.328348259935   0.326492536825   
      0.324745960768   0.323122663129   0.321635597112   0.320296415195   0.31911538977   
      0.318101372724   0.317261786995   0.316602641354   0.316128559013   0.315842810932   
      0.315747345856   0.315842810932   0.316128559013   0.316602641354   0.317261786995   
      0.318101372724   0.31911538977   0.320296415195   0.321635597112   0.323122663129   
      0.324745960768   0.326492536825   0.328348259935   0.330297987106   0.332325771021   
      0.334415101029   0.33654916734   0.338711135533   0.340884417384   0.343052924357   
      0.345201291781   0.347315064516   0.349380838329   0.351386354827   0.353320551163   
      0.355173568514   0.356936725348   0.358602462608   0.360164268332   0.361616588899   
      0.362954733354   0.364174776191   0.365273462875   0.366248121212   0.36709658071   
      0.367817101209   0.368408311437   0.368869157651   0.369198862252   0.369396892086   
      0.372671528391   0.372606358228   0.372410943914   0.372085578231   0.37163076341   
      0.371047232779   0.370335981488   0.369498306701   0.368535857547   0.367450695034   
      0.366245361827   0.364922961385   0.363487245318   0.361942707059   0.360294678948   
      0.35854942877   0.356714250622   0.354797543953   0.352808873785   0.350759004737   
      0.348659901673   0.346524690748   0.34436757641   0.342203712497   0.340049028729   
      0.337920017414   0.335833488595   0.3338063047   0.331855107663   0.329996052116   
      0.328244557477   0.326615089753   0.325120980747   0.323774288768   0.322585701073   
      0.321564474868   0.320718410856   0.320053851499   0.319575695275   0.319287418347   
      0.319191096061   0.319287418347   0.319575695275   0.320053851499   0.320718410856   
      0.321564474868   0.322585701073   0.323774288768   0.325120980747   0.326615089753   
      0.328244557477   0.329996052116   0.331855107663   0.3338063047   0.335833488595   
      0.337920017414   0.340049028729   0.342203712497   0.34436757641   0.346524690748   
      0.348659901673   0.350759004737   0.352808873785   0.354797543953   0.356714250622   
      0.35854942877   0.360294678948   0.361942707059   0.363487245318   0.364922961385   
      0.366245361827   0.367450695034   0.368535857547   0.369498306701   0.370335981488   
      0.371047232779   0.37163076341   0.372085578231   0.372410943914   0.372606358228   
      0.379257137143   0.379193885027   0.379004213139   0.378688378849   0.378246824475   
      0.377680197577   0.376989379851   0.376175524988   0.375240105907   0.374184971636   
      0.373012413916   0.371725243228   0.370326873408   0.368821413312   0.367213763103   
      0.365509711695   0.363716030821   0.36184056008   0.359892276469   0.357881341285   
      0.355819117274   0.353718149484   0.35159210468   0.34945566631   0.34732438482   
      0.345214486345   0.343142646095   0.341125735703   0.339180556035   0.33732356806   
      0.335570634321   0.33393678216   0.332435997435   0.331081054356   0.329883383584   
      0.328852977472   0.327998328448   0.327326394552   0.326842584951   0.326550758097   
      0.326453225827   0.326550758097   0.326842584951   0.327326394552   0.327998328448   
      0.328852977472   0.329883383584   0.331081054356   0.332435997435   0.33393678216   
      0.335570634321   0.33732356806   0.339180556035   0.341125735703   0.343142646095   
      0.345214486345   0.34732438482   0.34945566631   0.35159210468   0.353718149484   
      0.355819117274   0.357881341285   0.359892276469   0.36184056008   0.363716030821   
      0.365509711695   0.367213763103   0.368821413312   0.370326873408   0.371725243228   
      0.373012413916   0.374184971636   0.375240105907   0.376175524988   0.376989379851   
      0.377680197577   0.378246824475   0.378688378849   0.379004213139   0.379193885027   
      0.389477378571   0.389417422104   0.389237620575   0.388938181205   0.388519461468   
      0.387981987509   0.387326480421   0.386553890794   0.385665442013   0.384662682687   
      0.383547548465   0.382322433199   0.380990268991   0.379554614051   0.378019746536   
      0.376390761613   0.374673667967   0.372875478934   0.371004292446   0.369069353256   
      0.367081090555   0.365051124258   0.362992234123   0.360918287383   0.358844122861   
      0.356785392245   0.354758362255   0.352779684359   0.350866141188   0.349034380531   
      0.347300648459   0.345680532756   0.344188726325   0.342838817997   0.341643115339   
      0.340612501164   0.339756322735   0.339082310514   0.338596521843   0.338303304367   
      0.33820527415   0.338303304367   0.338596521843   0.339082310514   0.339756322735   
      0.340612501164   0.341643115339   0.342838817997   0.344188726325   0.345680532756   
      0.347300648459   0.349034380531   0.350866141188   0.352779684359   0.354758362255   
      0.356785392245   0.358844122861   0.360918287383   0.362992234123   0.365051124258   
      0.367081090555   0.369069353256   0.371004292446   0.372875478934   0.374673667967   
      0.376390761613   0.378019746536   0.379554614051   0.380990268991   0.382322433199   
      0.383547548465   0.384662682687   0.385665442013   0.386553890794   0.387326480421   
      0.387981987509   0.388519461468   0.388938181205   0.389237620575   0.389417422104   
      0.403559685208   0.403504844254   0.403340369434   0.403066408009   0.402683215942   
      0.402191173952   0.401590810475   0.40088283199   0.400068161195   0.399147983557   
      0.398123802602   0.396997504209   0.395771429755   0.394448457572   0.393032091514   
      0.391526554641   0.389936885182   0.388269030882   0.386529936912   0.384727621644   
      0.382871233963   0.380971085574   0.379038652074   0.377086537426   0.375128398054   
      0.37317882486   0.371253184024   0.369367420104   0.367537827596   0.365780799204   
      0.364112560573   0.362548901818   0.361104915828   0.359794752209   0.35863139384   
      0.357626460898   0.356790044889   0.356130573206   0.355654703126   0.355367243141   
      0.355271099133   0.355367243141   0.355654703126   0.356130573206   0.356790044889   
      0.357626460898   0.35863139384   0.359794752209   0.361104915828   0.362548901818   
      0.364112560573   0.365780799204   0.367537827596   0.369367420104   0.371253184024   
      0.37317882486   0.375128398054   0.377086537426   0.379038652074   0.380971085574   
      0.382871233963   0.384727621644   0.386529936912   0.388269030882   0.389936885182   
      0.391526554641   0.393032091514   0.394448457572   0.395771429755   0.396997504209   
      0.398123802602   0.399147983557   0.400068161195   0.40088283199   0.401590810475   
      0.402191173952   0.402683215942   0.403066408009   0.403340369434   0.403504844254   
      0.421428476466   0.421380821662   0.421237885476   0.420999755157   0.420666584772   