<?xml version="1.0"?>
<VTKFile type="ImageData" version="0.1" byte_order="LittleEndian">
  <ImageData WholeExtent="0 79 0 19 0 19" Origin="0 0 0" Spacing="1 1 1">
  <Piece Extent="0 79 0 19 0 19">
    <PointData Scalars="density">
       <DataArray type="Float32" Name="bluedensity" NumberOfComponents="1" format="ascii">
      0   0   0   0   0   
      0   0   0   0   0   
      0   0   0   0   0   
      0   0   0   0   0   
      0   0   0   0   0   
      0   0   0   0   0   
      0   0   0   0   0   
      0   0   0   0   0   
      0   0   0   0   0   
      0   0   0   0   0   
      0   0   0   0   0   
      0   0   0   0   0   
      0   0   0   0   0   
      0   0   0   0   0   
      0   0   0   0   0   
      0   0   0   0   0   
      0   0   0   0   0   
      0   0   0   0   0   
      0   0   0   0   0   
      0   0   0   0   0   
      0   0   0   0   0   
      0   0   0   0   0   
      0   0   0   0   0   
      0   0   0   0   0   
      0   0   0   0   0   
      0   0   0   0   0   
      0   0   0   0   0   
      0   0   0   0   0   
      0   0   0   0   0   
      0   0   0   0   0   
      0   0   0   0   0   
      0   0   0   0   0   
      0   0   0   0   0   
      0   0   0   0   0   
      0   0   0   0   0   
      0   0   0   0   0   
      0   0   0   0   0   
      0   0   0   0   0   
      0   0   0   0   0   
      0   0   0   0   0   
      0   0   0   0   0   
      0   0   0   0   0   
      0   0   0   0   0   
      0   0   0   0   0   
      0   0   0   0   0   
      0   0   0   0   0   
      0   0   0   0   0   
      0   0   0   0   0   
      0   0   0   0   0   
      0   0   0   0   0   
      0   0   0   0   0   
      0   0   0   0   0   
      0   0   0   0   0   
      0   0   0   0   0   
      0   0   0   0   0   
      0   0   0   0   0   
      0   0   0   0   0   
      0   0   0   0   0   
      0   0   0   0   0   
      0   0   0   0   0   
      0   0   0   0   0   
      0   0   0   0   0   
      0   0   0   0   0   
      0   0   0   0   0   
      0   0   0   0   0   
      0   0   0   0   0   
      0   0   0   0   0   
      0   0   0   0   0   
      0   0   0   0   0   
      0   0   0   0   0   
      0   0   0   0   0   
      0   0   0   0   0   
      0   0   0   0   0   
      0   0   0   0   0   
      0   0   0   0   0   
      0   0   0   0   0   
      0   0   0   0   0   
      0   0   0   0   0   
      0   0   0   0   0   
      0   0   0   0   0   
      0   0   0   0   0   
      0   0   0   0   0   
      0   0   0   0   0   
      0   0   0   0   0   
      0   0   0   0   0   
      0   0   0   0   0   
      0   0   0   0   0   
      0   0   0   0   0   
      0   0   0   0   0   
      0   0   0   0   0   
      0   0   0   0   0   
      0   0   0   0   0   
      0   0   0   0   0   
      0   0   0   0   0   
      0   0   0   0   0   
      0   0   0   0   0   
      0   0   0   0   0   
      0   0   0   0   0   
      0   0   0   0   0   
      0   0   0   0   0   
      0   0   0   0   0   
      0   0   0   0   0   
      0   0   0   0   0   
      0   0   0   0   0   
      0   0   0   0   0   
      0   0   0   0   0   
      0   0   0   0   0   
      0   0   0   0   0   
      0   0   0   0   0   
      0   0   0   0   0   
      0   0   0   0   0   
      0   0   0   0   0   
      0   0   0   0   0   
      0   0   0   0   0   
      0   0   0   0   0   
      0   0   0   0   0   
      0   0   0   0   0   
      0   0   0   0   0   
      0   0   0   0   0   
      0   0   0   0   0   
      0   0   0   0   0   
      0   0   0   0   0   
      0   0   0   0   0   
      0   0   0   0   0   
      0   0   0   0   0   
      0   0   0   0   0   
      0   0   0   0   0   
      0   0   0   0   0   
      0   0   0   0   0   
      0   0   0   0   0   
      0   0   0   0   0   
      0   0   0   0   0   
      0   0   0   0   0   
      0   0   0   0   0   
      0   0   0   0   0   
      0   0   0   0   0   
      0   0   0   0   0   
      0   0   0   0   0   
      0   0   0   0   0   
      0   0   0   0   0   
      0   0   0   0   0   
      0   0   0   0   0   
      0   0   0   0   0   
      0   0   0   0   0   
      0   0   0   0   0   
      0   0   0   0   0   
      0   0   0   0   0   
      0   0   0   0   0   
      0   0   0   0   0   
      0   0   0   0   0   
      0   0   0   0   0   
      0   0   0   0   0   
      0   0   0   0   0   
      0   0   0   0   0   
      0   0   0   0   0   
      0   0   0   0   0   
      0   0   0   0   0   
      0   0   0   0   0   
      0   0   0   0   0   
      0   0   0   0   0   
      0   0   0   0   0   
      0   0   0   0   0   
      0   0   0   0   0   
      0   0   0   0   0   
      0   0   0   0   0   
      0   0   0   0   0   
      0   0   0   0   0   
      0   0   0   0   0   
      0   0   0   0   0   
      0   0   0   0   0   
      0   0   0   0   0   
      0   0   0   0   0   
      0   0   0   0   0   
      0   0   0   0   0   
      0   0   0   0   0   
      0   0   0   0   0   
      0   0   0   0   0   
      0   0   0   0   0   
      0   0   0   0   0   
      0   0   0   0   0   
      0   0   0   0   0   
      0   0   0   0   0   
      0   0   0   0   0   
      0   0   0   0   0   
      0   0   0   0   0   
      0   0   0   0   0   
      0   0   0   0   0   
      0   0   0   0   0   
      0   0   0   0   0   
      0   0   0   0   0   
      0   0   0   0   0   
      0   0   0   0   0   
      0   0   0   0   0   
      0   0   0   0   0   
      0   0   0   0   0   
      0   0   0   0   0   
      0   0   0   0   0   
      0   0   0   0   0   
      0   0   0   0   0   
      0   0   0   0   0   
      0   0   0   0   0   
      0   0   0   0   0   
      0   0   0   0   0   
      0   0   0   0   0   
      0   0   0   0   0   
      0   0   0   0   0   
      0   0   0   0   0   
      0   0   0   0   0   
      0   0   0   0   0   
      0   0   0   0   0   
      0   0   0   0   0   
      0   0   0   0   0   
      0   0   0   0   0   
      0   0   0   0   0   
      0   0   0   0   0   
      0   0   0   0   0   
      0   0   0   0   0   
      0   0   0   0   0   
      0   0   0   0   0   
      0   0   0   0   0   
      0   0   0   0   0   
      0   0   0   0   0   
      0   0   0   0   0   
      0   0   0   0   0   
      0   0   0   0   0   
      0   0   0   0   0   
      0   0   0   0   0   
      0   0   0   0   0   
      0   0   0   0   0   
      0   0   0   0   0   
      0   0   0   0   0   
      0   0   0   0   0   
      0   0   0   0   0   
      0   0   0   0   0   
      0   0   0   0   0   
      0   0   0   0   0   
      0   0   0   0   0   
      0   0   0   0   0   
      0   0   0   0   0   
      0   0   0   0   0   
      0   0   0   0   0   
      0   0   0   0   0   
      0   0   0   0   0   
      0   0   0   0   0   
      0   0   0   0   0   
      0   0   0   0   0   
      0   0   0   0   0   
      0   0   0   0   0   
      0   0   0   0   0   
      0   0   0   0   0   
      0   0   0   0   0   
      0   0   0   0   0   
      0   0   0   0   0   
      0   0   0   0   0   
      0   0   0   0   0   
      0   0   0   0   0   
      0   0   0   0   0   
      0   0   0   0   0   
      0   0   0   0   0   
      0   0   0   0   0   
      0   0   0   0   0   
      0   0   0   0   0   
      0   0   0   0   0   
      0   0   0   0   0   
      0   0   0   0   0   
      0   0   0   0   0   
      0   0   0   0   0   
      0   0   0   0   0   
      0   0   0   0   0   
      0   0   0   0   0   
      0   0   0   0   0   
      0   0   0   0   0   
      0   0   0   0   0   
      0   0   0   0   0   
      0   0   0   0   0   
      0   0   0   0   0   
      0   0   0   0   0   
      0   0   0   0   0   
      0   0   0   0   0   
      0   0   0   0   0   
      0   0   0   0   0   
      0   0   0   0   0   
      0   0   0   0   0   
      0   0   0   0   0   
      0   0   0   0   0   
      0   0   0   0   0   
      0   0   0   0   0   
      0   0   0   0   0   
      0   0   0   0   0   
      0   0   0   0   0   
      0   0   0   0   0   
      0   0   0   0   0   
      0   0   0   0   0   
      0   0   0   0   0   
      0   0   0   0   0   
      0   0   0   0   0   
      0   0   0   0   0   
      0   0   0   0   0   
      0   0   0   0   0   
      0   0   0   0   0   
      0   0   0   0   0   
      0   0   0   0   0   
      0   0   0   0   0   
      0   0   0   0   0   
      0   0   0   0   0   
      0   0   0   0   0   
      0   0   0   0   0   
      0   0   0   0   0   
      0   0   0   0   0   
      0   0   0   0   0   
      0   0   0   0   0   
      0   0   0   0   0   
      0   0   0   0   0   
      0   0   0   0   0   
      0   0   0   0   0   
      0   0   0   0   0   
      0   0   0   0   0   
      0   0   0   0   0   
      0   0   0   0   0   
      0   0   0   0   0   
      0   0   0   0   0   
      0   0   0   0   0   
      0   0   0   0   0   
      0   0   0   0   0   
      0   0   0   0   0   
      0   0   0   0   0   
      0   0   0   0   0   
      0   0   0   0   0   
      0   0   0   0   0   
      0   0   0   0   0   
      0   0   0   0   0   
      0   0   0   0   0   
      0   0   0   0   0   
      0   0   0   0   0   
      0   0   0   0   0   
      0   0   0   0   0   
      0.571253180371   0.571246842334   0.571227856442   0.571196307396   0.571152336517   
      0.571096141956   0.571027978971   0.57094816024   0.570857056182   0.570755095248   
      0.570642764141   0.570520607908   0.570389229862   0.570249291253   0.570101510645   
      0.569946662914   0.569785577801   0.569619137955   0.569448276394   0.569273973315   
      0.569097252206   0.568919175209   0.568740837694   0.568563362035   0.56838789058   
      0.56821557784   0.568047581933   0.567885055361   0.567729135202   0.567580932827   
      0.567441523305   0.567311934625   0.56719313693   0.567086031957   0.566991442862   
      0.566910104653   0.566842655416   0.566789628527   0.566751446019   0.566728413259   
      0.566720715049   0.566728413259   0.566751446019   0.566789628527   0.566842655416   
      0.566910104653   0.566991442862   0.567086031957   0.56719313693   0.567311934625   
      0.567441523305   0.567580932827   0.567729135202   0.567885055361   0.568047581933   
      0.56821557784   0.56838789058   0.568563362035   0.568740837694   0.568919175209   
      0.569097252206   0.569273973315   0.569448276394   0.569619137955   0.569785577801   
      0.569946662914   0.570101510645   0.570249291253   0.570389229862   0.570520607908   
      0.570642764141   0.570755095248   0.570857056182   0.57094816024   0.571027978971   
      0.571096141956   0.571152336517   0.571196307396   0.571227856442   0.571246842334   
      0.458581441071   0.458572645875   0.458546299457   0.458502519391   0.458441501855   
      0.458363521945   0.458268934081   0.458158172469   0.458031751575   0.457890266555   
      0.457734393586   0.457564890016   0.457382594255   0.457188425328   0.456983381986   
      0.456768541286   0.456545056541   0.456314154538   0.456077131934   0.455835350744   
      0.455590232842   0.455343253417   0.455095933339   0.454849830417   0.454606529547   
      0.454367631801   0.454134742502   0.453909458397   0.453693354052   0.45348796764   
      0.453294786305   0.45311523133   0.452950643349   0.452802267863   0.452671241328   
      0.452558578084   0.452465158392   0.452391717829   0.452338838271   0.452306940656   
      0.452296279696   0.452306940656   0.452338838271   0.452391717829   0.452465158392   
      0.452558578084   0.452671241328   0.452802267863   0.452950643349   0.45311523133   
      0.453294786305   0.45348796764   0.453693354052   0.453909458397   0.454134742502   
      0.454367631801   0.454606529547   0.454849830417   0.455095933339   0.455343253417   
      0.455590232842   0.455835350744   0.456077131934   0.456314154538   0.456545056541   
      0.456768541286   0.456983381986   0.457188425328   0.457382594255   0.457564890016   
      0.457734393586   0.457890266555   0.458031751575   0.458158172469   0.458268934081   
      0.458363521945   0.458441501855   0.458502519391   0.458546299457   0.458572645875   
      0.432807814443   0.432796482095   0.432762536417   0.43270613159   0.432627524808   
      0.43252707661   0.432405251287   0.43226261733   0.432099847863   0.431917720981   
      0.431717119929   0.431499033005   0.431264553114   0.431014876836   0.430751302915   
      0.43047523003   0.430188153751   0.429891662537   0.429587432684   0.429277222121   
      0.428962862962   0.428646252757   0.4283293444   0.428014134681   0.427702651507   
      0.427396939843   0.427099046481   0.42681100375   0.426534812356   0.426272423555   
      0.426025720898   0.425796501822   0.425586459386   0.425397164454   0.425230048647   
      0.425086388391   0.424967290354   0.424873678571   0.424806283529   0.424765633413   
      0.424752047729   0.424765633413   0.424806283529   0.424873678571   0.424967290354   
      0.425086388391   0.425230048647   0.425397164454   0.425586459386   0.425796501822   
      0.426025720898   0.426272423555   0.426534812356   0.42681100375   0.427099046481   
      0.427396939843   0.427702651507   0.428014134681   0.4283293444   0.428646252757   
      0.428962862962   0.429277222121   0.429587432684   0.429891662537   0.430188153751   
      0.43047523003   0.430751302915   0.431014876836   0.431264553114   0.431499033005   
      0.431717119929   0.431917720981   0.432099847863   0.43226261733   0.432405251287   
      0.43252707661   0.432627524808   0.43270613159   0.432762536417   0.432796482095   
      0.40728707232   0.407273263005   0.407231899192   0.40716317334   0.407067406393   
      0.406945048034   0.40679667697   0.406623001213   0.406424858274   0.406203215198   
      0.405959168326   0.40569394269   0.405408890911   0.405105491482   0.404785346287   
      0.404450177242   0.404101821904   0.403742227937   0.403373446302   0.402997623089   
      0.402616989887   0.402233852655   0.401850579054   0.401469584265   0.401093315316   
      0.400724234034   0.400364798723   0.400017444758   0.399684564298   0.399368485371   
      0.399071450603   0.398795595915   0.398542929512   0.398315311495   0.398114434467   
      0.39794180545   0.397798729461   0.397686295033   0.397605361977   0.397556551598   
      0.397540239569   0.397556551598   0.397605361977   0.397686295033   0.397798729461   
      0.39794180545   0.398114434467   0.398315311495   0.398542929512   0.398795595915   
      0.399071450603   0.399368485371   0.399684564298   0.400017444758   0.400364798723   
      0.400724234034   0.401093315316   0.401469584265   0.401850579054   0.402233852655   
      0.402616989887   0.402997623089   0.403373446302   0.403742227937   0.404101821904   
      0.404450177242   0.404785346287   0.405105491482   0.405408890911   0.40569394269   
      0.405959168326   0.406203215198   0.406424858274   0.406623001213   0.40679667697   
      0.406945048034   0.407067406393   0.40716317334   0.407231899192   0.407273263005   
      0.387300327551   0.387284703869   0.387237907265   0.387160161095   0.387051837701   
      0.386913458499   0.386745694052   0.38654936404   0.386325437074   0.386075030251   
      0.385799408328   0.385499982427   0.385178308109   0.384836082698   0.384475141715   
      0.384097454273   0.383705117307   0.383300348505   0.382885477837   0.382462937583   
      0.382035250797   0.381605018171   0.381174903289   0.380747616325   0.380325896229   
      0.379912491558   0.379510140076   0.379121547347   0.378749364557   0.378396165823   
      0.37806442532   0.377756494515   0.377474579876   0.377220721385   0.376996772206   
      0.376804379831   0.376644969039   0.376519726929   0.376429590317   0.376375235685   
      0.376357071882   0.376375235685   0.376429590317   0.376519726929   0.376644969039   
      0.376804379831   0.376996772206   0.377220721385   0.377474579876   0.377756494515   
      0.37806442532   0.378396165823   0.378749364557   0.379121547347   0.379510140076   
      0.379912491558   0.380325896229   0.380747616325   0.381174903289   0.381605018171   
      0.382035250797   0.382462937583   0.382885477837   0.383300348505   0.383705117307   
      0.384097454273   0.384475141715   0.384836082698   0.385178308109   0.385499982427   
      0.385799408328   0.386075030251   0.386325437074   0.38654936404   0.386745694052   
      0.386913458499   0.387051837701   0.387160161095   0.387237907265   0.387284703869   
      0.371745631452   0.371728817088   0.371678456002   0.371594794197   0.371478241639   
      0.371329372168   0.371148923298   0.370937795858   0.370697053365   0.370427921062   
      0.370131784473   0.369810187384   0.369464829089   0.369097560781   0.36871038094   
      0.368305429578   0.367884981223   0.367451436512   0.367007312301   0.366555230219   
      0.366097903618   0.365638122901   0.36517873926   0.364722646876   0.3642727637   
      0.363832010941   0.363403291469   0.36298946733   0.36259333666   0.362217610254   
      0.361864888114   0.361537636301   0.361238164402   0.360968603963   0.360730888192   
      0.360526733251   0.360357621415   0.360224786358   0.360129200795   0.360071566666   
      0.360052308012   0.360071566666   0.360129200795   0.360224786358   0.360357621415   
      0.360526733251   0.360730888192   0.360968603963   0.361238164402   0.361537636301   
      0.361864888114   0.362217610254   0.36259333666   0.36298946733   0.363403291469   
      0.363832010941   0.3642727637   0.364722646876   0.36517873926   0.365638122901   
      0.366097903618   0.366555230219   0.367007312301   0.367451436512   0.367884981223   
      0.368305429578   0.36871038094   0.369097560781   0.369464829089   0.369810187384   
      0.370131784473   0.370427921062   0.370697053365   0.370937795858   0.371148923298   
      0.371329372168   0.371478241639   0.371594794197   0.371678456002   0.371728817088   
      0.360601881904   0.360584371925   0.360531929031   0.360444814316   0.360323462783   
      0.360168483085   0.359980657087   0.359760939187   0.359510455307   0.359230501454   
      0.358922541736   0.358588205705   0.358229284899   0.357847728439   0.357445637552   
      0.357025258878   0.356588976459   0.356139302286   0.355678865332   0.35521039901   
      0.354736727033   0.354260747683   0.353785416528   0.353313727699   0.352848693817   
      0.35239332477   0.351950605528   0.351523473236   0.351114793846   0.350727338591   
      0.350363760587   0.350026571882   0.349718121267   0.349440573156   0.349195887816   
      0.348985803242   0.348811818907   0.34867518163   0.348576873738   0.348517603699   
      0.348497799331   0.348517603699   0.348576873738   0.34867518163   0.348811818907   
      0.348985803242   0.349195887816   0.349440573156   0.349718121267   0.350026571882   
      0.350363760587   0.350727338591   0.351114793846   0.351523473236   0.351950605528   
      0.35239332477   0.352848693817   0.353313727699   0.353785416528   0.354260747683   
      0.354736727033   0.35521039901   0.355678865332   0.356139302286   0.356588976459   
      0.357025258878   0.357445637552   0.357847728439   0.358229284899   0.358588205705   
      0.358922541736   0.359230501454   0.359510455307   0.359760939187   0.359980657087   
      0.360168483085   0.360323462783   0.360444814316   0.360531929031   0.360584371925   
      0.353493222877   0.353475348118   0.35342181392   0.353332890443   0.353209027718   
      0.353050855256   0.352859181429   0.352634992556   0.352379451598   0.35209389638   
      0.351779837193   0.351438953689   0.351073090896   0.350684254256   0.350274603531   
      0.349846445459   0.349402225047   0.348944515412   0.348476006095   0.347999489799   
      0.347517847553   0.347034032325   0.346551051137   0.346071945801   0.345599772418   
      0.345137579803   0.344688387082   0.344255160675   0.343840790963   0.343448068898   
      0.343079662882   0.342738096188   0.342425725239   0.342144719024   0.341897039922   
      0.341684426171   0.341508376232   0.341370135211   0.341270683531   0.341210727982   
      0.341190695244   0.341210727982   0.341270683531   0.341370135211   0.341508376232   
      0.341684426171   0.341897039922   0.342144719024   0.342425725239   0.342738096188   
      0.343079662882   0.343448068898   0.343840790963   0.344255160675   0.344688387082   
      0.345137579803   0.345599772418   0.346071945801   0.346551051137   0.347034032325   
      0.347517847553   0.347999489799   0.348476006095   0.348944515412   0.349402225047   
      0.349846445459   0.350274603531   0.350684254256   0.351073090896   0.351438953689   
      0.351779837193   0.35209389638   0.352379451598   0.352634992556   0.352859181429   
      0.353050855256   0.353209027718   0.353332890443   0.35342181392   0.353475348118   
      0.350051469132   0.350033442077   0.349979452399   0.34988977449   0.349764865383   
      0.349605364295   0.349412091912   0.349186049345   0.348928416675   0.348640550986   
      0.348323983759   0.347980417515   0.347611721574   0.347219926788   0.346807219131   
      0.346375932019   0.345928537255   0.345467634511   0.344995939273   0.34451626924   
      0.344031529142   0.343544694039   0.343058791164   0.342576880419   0.342102033685   
      0.34163731313   0.341185748736   0.340750315292   0.340333909128   0.339939324872   
      0.339569232527   0.339226155154   0.338912447454   0.338630275526   0.338381598048   
      0.33816814912   0.337991422978   0.337852660758   0.337752839461   0.337692663245   
      0.33767255714   0.337692663245   0.337752839461   0.337852660758   0.337991422978   
      0.33816814912   0.338381598048   0.338630275526   0.338912447454   0.339226155154   
      0.339569232527   0.339939324872   0.340333909128   0.340750315292   0.341185748736   
      0.34163731313   0.342102033685   0.342576880419   0.343058791164   0.343544694039   
      0.344031529142   0.34451626924   0.344995939273   0.345467634511   0.345928537255   
      0.346375932019   0.346807219131   0.347219926788   0.347611721574   0.347980417515   
      0.348323983759   0.348640550986   0.348928416675   0.349186049345   0.349412091912   
      0.349605364295   0.349764865383   0.34988977449   0.349979452399   0.350033442077   
      0.350051469132   0.350033442077   0.349979452399   0.34988977449   0.349764865383   
      0.349605364295   0.349412091912   0.349186049345   0.348928416675   0.348640550986   
      0.348323983759   0.347980417515   0.347611721574   0.347219926788   0.346807219131   
      0.346375932019   0.345928537255   0.345467634511   0.344995939273   0.34451626924   
      0.344031529142   0.343544694039   0.343058791164   0.342576880419   0.342102033685   
      0.34163731313   0.341185748736   0.340750315292   0.340333909128   0.339939324872   
      0.339569232527   0.339226155154   0.338912447454   0.338630275526   0.338381598048   
      0.33816814912   0.337991422978   0.337852660758   0.337752839461   0.337692663245   
      0.33767255714   0.337692663245   0.337752839461   0.337852660758   0.337991422978   
      0.33816814912   0.338381598048   0.338630275526   0.338912447454   0.339226155154   
      0.339569232527   0.339939324872   0.340333909128   0.340750315292   0.341185748736   
      0.34163731313   0.342102033685   0.342576880419   0.343058791164   0.343544694039   
      0.344031529142   0.34451626924   0.344995939273   0.345467634511   0.345928537255   
      0.346375932019   0.346807219131   0.347219926788   0.347611721574   0.347980417515   
      0.348323983759   0.348640550986   0.348928416675   0.349186049345   0.349412091912   
      0.349605364295   0.349764865383   0.34988977449   0.349979452399   0.350033442077   
      0.353493222877   0.353475348118   0.35342181392   0.353332890443   0.353209027718   
      0.353050855256   0.352859181429   0.352634992556   0.352379451598   0.35209389638   
      0.351779837193   0.351438953689   0.351073090896   0.350684254256   0.350274603531   
      0.349846445459   0.349402225047   0.348944515412   0.348476006095   0.347999489799   
      0.347517847553   0.347034032325   0.346551051137   0.346071945801   0.345599772418   
      0.345137579803   0.344688387082   0.344255160675   0.343840790963   0.343448068898   
      0.343079662882   0.342738096188   0.342425725239   0.342144719024   0.341897039922   
      0.341684426171   0.341508376232   0.341370135211   0.341270683531   0.341210727982   
      0.341190695244   0.341210727982   0.341270683531   0.341370135211   0.341508376232   
      0.341684426171   0.341897039922   0.342144719024   0.342425725239   0.342738096188   
      0.343079662882   0.343448068898   0.343840790963   0.344255160675   0.344688387082   
      0.345137579803   0.345599772418   0.346071945801   0.346551051137   0.347034032325   
      0.347517847553   0.347999489799   0.348476006095   0.348944515412   0.349402225047   
      0.349846445459   0.350274603531   0.350684254256   0.351073090896   0.351438953689   
      0.351779837193   0.35209389638   0.352379451598   0.352634992556   0.352859181429   
      0.353050855256   0.353209027718   0.353332890443   0.35342181392   0.353475348118   
      0.360601881904   0.360584371925   0.360531929031   0.360444814316   0.360323462783   
      0.360168483085   0.359980657087   0.359760939187   0.359510455307   0.359230501454   
      0.358922541736   0.358588205705   0.358229284899   0.357847728439   0.357445637552   
      0.357025258878   0.356588976459   0.356139302286   0.355678865332   0.35521039901   
      0.354736727033   0.354260747683   0.353785416528   0.353313727699   0.352848693817   
      0.35239332477   0.351950605528   0.351523473236   0.351114793846   0.350727338591   
      0.350363760587   0.350026571882   0.349718121267   0.349440573156   0.349195887816   
      0.348985803242   0.348811818907   0.34867518163   0.348576873738   0.348517603699   
      0.348497799331   0.348517603699   0.348576873738   0.34867518163   0.348811818907   
      0.348985803242   0.349195887816   0.349440573156   0.349718121267   0.350026571882   
      0.350363760587   0.350727338591   0.351114793846   0.351523473236   0.351950605528   
      0.35239332477   0.352848693817   0.353313727699   0.353785416528   0.354260747683   
      0.354736727033   0.35521039901   0.355678865332   0.356139302286   0.356588976459   
      0.357025258878   0.357445637552   0.357847728439   0.358229284899   0.358588205705   
      0.358922541736   0.359230501454   0.359510455307   0.359760939187   0.359980657087   
      0.360168483085   0.360323462783   0.360444814316   0.360531929031   0.360584371925   
      0.371745631452   0.371728817088   0.371678456002   0.371594794197   0.371478241639   
      0.371329372168   0.371148923298   0.370937795858   0.370697053365   0.370427921062   
      0.370131784473   0.369810187384   0.369464829089   0.369097560781   0.36871038094   
      0.368305429578   0.367884981223   0.367451436512   0.367007312301   0.366555230219   
      0.366097903618   0.365638122901   0.36517873926   0.364722646876   0.3642727637   
      0.363832010941   0.363403291469   0.36298946733   0.36259333666   0.362217610254   
      0.361864888114   0.361537636301   0.361238164402   0.360968603963   0.360730888192   
      0.360526733251   0.360357621415   0.360224786358   0.360129200795   0.360071566666   
      0.360052308012   0.360071566666   0.360129200795   0.360224786358   0.360357621415   
      0.360526733251   0.360730888192   0.360968603963   0.361238164402   0.361537636301   
      0.361864888114   0.362217610254   0.36259333666   0.36298946733   0.363403291469   
      0.363832010941   0.3642727637   0.364722646876   0.36517873926   0.365638122901   
      0.366097903618   0.366555230219   0.367007312301   0.367451436512   0.367884981223   
      0.368305429578   0.36871038094   0.369097560781   0.369464829089   0.369810187384   
      0.370131784473   0.370427921062   0.370697053365   0.370937795858   0.371148923298   
      0.371329372168   0.371478241639   0.371594794197   0.371678456002   0.371728817088   
      0.387300327551   0.387284703869   0.387237907265   0.387160161095   0.387051837701   
      0.386913458499   0.386745694052   0.38654936404   0.386325437074   0.386075030251   
      0.385799408328   0.385499982427   0.385178308109   0.384836082698   0.384475141715   
      0.384097454273   0.383705117307   0.383300348505   0.382885477837   0.382462937583   
      0.382035250797   0.381605018171   0.381174903289   0.380747616325   0.380325896229   
      0.379912491558   0.379510140076   0.379121547347   0.378749364557   0.378396165823   
      0.37806442532   0.377756494515   0.377474579876   0.377220721385   0.376996772206   
      0.376804379831   0.376644969039   0.376519726929   0.376429590317   0.376375235685   
      0.376357071882   0.376375235685   0.376429590317   0.376519726929   0.376644969039   
      0.376804379831   0.376996772206   0.377220721385   0.377474579876   0.377756494515   
      0.37806442532   0.378396165823   0.378749364557   0.379121547347   0.379510140076   
      0.379912491558   0.380325896229   0.380747616325   0.381174903289   0.381605018171   
      0.382035250797   0.382462937583   0.382885477837   0.383300348505   0.383705117307   
      0.384097454273   0.384475141715   0.384836082698   0.385178308109   0.385499982427   
      0.385799408328   0.386075030251   0.386325437074   0.38654936404   0.386745694052   
      0.386913458499   0.387051837701   0.387160161095   0.387237907265   0.387284703869   
      0.40728707232   0.407273263005   0.407231899192   0.40716317334   0.407067406393   