<?xml version="1.0"?>
<VTKFile type="ImageData" version="0.1" byte_order="LittleEndian">
  <ImageData WholeExtent="0 79 0 19 0 19" Origin="0 0 0" Spacing="1 1 1">
  <Piece Extent="0 79 0 19 0 19">
    <PointData Scalars="density">
       <DataArray type="Float32" Name="bluedensity" NumberOfComponents="1" format="ascii">
      0   0   0   0   0   
      0   0   0   0   0   
      0   0   0   0   0   
      0   0   0   0   0   
      0   0   0   0   0   
      0   0   0   0   0   
      0   0   0   0   0   
      0   0   0   0   0   
      0   0   0   0   0   
      0   0   0   0   0   
      0   0   0   0   0   
      0   0   0   0   0   
      0   0   0   0   0   
      0   0   0   0   0   
      0   0   0   0   0   
      0   0   0   0   0   
      0   0   0   0   0   
      0   0   0   0   0   
      0   0   0   0   0   
      0   0   0   0   0   
      0   0   0   0   0   
      0   0   0   0   0   
      0   0   0   0   0   
      0   0   0   0   0   
      0   0   0   0   0   
      0   0   0   0   0   
      0   0   0   0   0   
      0   0   0   0   0   
      0   0   0   0   0   
      0   0   0   0   0   
      0   0   0   0   0   
      0   0   0   0   0   
      0   0   0   0   0   
      0   0   0   0   0   
      0   0   0   0   0   
      0   0   0   0   0   
      0   0   0   0   0   
      0   0   0   0   0   
      0   0   0   0   0   
      0   0   0   0   0   
      0   0   0   0   0   
      0   0   0   0   0   
      0   0   0   0   0   
      0   0   0   0   0   
      0   0   0   0   0   
      0   0   0   0   0   
      0   0   0   0   0   
      0   0   0   0   0   
      0   0   0   0   0   
      0   0   0   0   0   
      0   0   0   0   0   
      0   0   0   0   0   
      0   0   0   0   0   
      0   0   0   0   0   
      0   0   0   0   0   
      0   0   0   0   0   
      0   0   0   0   0   
      0   0   0   0   0   
      0   0   0   0   0   
      0   0   0   0   0   
      0   0   0   0   0   
      0   0   0   0   0   
      0   0   0   0   0   
      0   0   0   0   0   
      0   0   0   0   0   
      0   0   0   0   0   
      0   0   0   0   0   
      0   0   0   0   0   
      0   0   0   0   0   
      0   0   0   0   0   
      0   0   0   0   0   
      0   0   0   0   0   
      0   0   0   0   0   
      0   0   0   0   0   
      0   0   0   0   0   
      0   0   0   0   0   
      0   0   0   0   0   
      0   0   0   0   0   
      0   0   0   0   0   
      0   0   0   0   0   
      0   0   0   0   0   
      0   0   0   0   0   
      0   0   0   0   0   
      0   0   0   0   0   
      0   0   0   0   0   
      0   0   0   0   0   
      0   0   0   0   0   
      0   0   0   0   0   
      0   0   0   0   0   
      0   0   0   0   0   
      0   0   0   0   0   
      0   0   0   0   0   
      0   0   0   0   0   
      0   0   0   0   0   
      0   0   0   0   0   
      0   0   0   0   0   
      0   0   0   0   0   
      0   0   0   0   0   
      0   0   0   0   0   
      0   0   0   0   0   
      0   0   0   0   0   
      0   0   0   0   0   
      0   0   0   0   0   
      0   0   0   0   0   
      0   0   0   0   0   
      0   0   0   0   0   
      0   0   0   0   0   
      0   0   0   0   0   
      0   0   0   0   0   
      0   0   0   0   0   
      0   0   0   0   0   
      0   0   0   0   0   
      0   0   0   0   0   
      0   0   0   0   0   
      0   0   0   0   0   
      0   0   0   0   0   
      0   0   0   0   0   
      0   0   0   0   0   
      0   0   0   0   0   
      0   0   0   0   0   
      0   0   0   0   0   
      0   0   0   0   0   
      0   0   0   0   0   
      0   0   0   0   0   
      0   0   0   0   0   
      0   0   0   0   0   
      0   0   0   0   0   
      0   0   0   0   0   
      0   0   0   0   0   
      0   0   0   0   0   
      0   0   0   0   0   
      0   0   0   0   0   
      0   0   0   0   0   
      0   0   0   0   0   
      0   0   0   0   0   
      0   0   0   0   0   
      0   0   0   0   0   
      0   0   0   0   0   
      0   0   0   0   0   
      0   0   0   0   0   
      0   0   0   0   0   
      0   0   0   0   0   
      0   0   0   0   0   
      0   0   0   0   0   
      0   0   0   0   0   
      0   0   0   0   0   
      0   0   0   0   0   
      0   0   0   0   0   
      0   0   0   0   0   
      0   0   0   0   0   
      0   0   0   0   0   
      0   0   0   0   0   
      0   0   0   0   0   
      0   0   0   0   0   
      0   0   0   0   0   
      0   0   0   0   0   
      0   0   0   0   0   
      0   0   0   0   0   
      0   0   0   0   0   
      0   0   0   0   0   
      0   0   0   0   0   
      0   0   0   0   0   
      0   0   0   0   0   
      0   0   0   0   0   
      0   0   0   0   0   
      0   0   0   0   0   
      0   0   0   0   0   
      0   0   0   0   0   
      0   0   0   0   0   
      0   0   0   0   0   
      0   0   0   0   0   
      0   0   0   0   0   
      0   0   0   0   0   
      0   0   0   0   0   
      0   0   0   0   0   
      0   0   0   0   0   
      0   0   0   0   0   
      0   0   0   0   0   
      0   0   0   0   0   
      0   0   0   0   0   
      0   0   0   0   0   
      0   0   0   0   0   
      0   0   0   0   0   
      0   0   0   0   0   
      0   0   0   0   0   
      0   0   0   0   0   
      0   0   0   0   0   
      0   0   0   0   0   
      0   0   0   0   0   
      0   0   0   0   0   
      0   0   0   0   0   
      0   0   0   0   0   
      0   0   0   0   0   
      0   0   0   0   0   
      0   0   0   0   0   
      0   0   0   0   0   
      0   0   0   0   0   
      0   0   0   0   0   
      0   0   0   0   0   
      0   0   0   0   0   
      0   0   0   0   0   
      0   0   0   0   0   
      0   0   0   0   0   
      0   0   0   0   0   
      0   0   0   0   0   
      0   0   0   0   0   
      0   0   0   0   0   
      0   0   0   0   0   
      0   0   0   0   0   
      0   0   0   0   0   
      0   0   0   0   0   
      0   0   0   0   0   
      0   0   0   0   0   
      0   0   0   0   0   
      0   0   0   0   0   
      0   0   0   0   0   
      0   0   0   0   0   
      0   0   0   0   0   
      0   0   0   0   0   
      0   0   0   0   0   
      0   0   0   0   0   
      0   0   0   0   0   
      0   0   0   0   0   
      0   0   0   0   0   
      0   0   0   0   0   
      0   0   0   0   0   
      0   0   0   0   0   
      0   0   0   0   0   
      0   0   0   0   0   
      0   0   0   0   0   
      0   0   0   0   0   
      0   0   0   0   0   
      0   0   0   0   0   
      0   0   0   0   0   
      0   0   0   0   0   
      0   0   0   0   0   
      0   0   0   0   0   
      0   0   0   0   0   
      0   0   0   0   0   
      0   0   0   0   0   
      0   0   0   0   0   
      0   0   0   0   0   
      0   0   0   0   0   
      0   0   0   0   0   
      0   0   0   0   0   
      0   0   0   0   0   
      0   0   0   0   0   
      0   0   0   0   0   
      0   0   0   0   0   
      0   0   0   0   0   
      0   0   0   0   0   
      0   0   0   0   0   
      0   0   0   0   0   
      0   0   0   0   0   
      0   0   0   0   0   
      0   0   0   0   0   
      0   0   0   0   0   
      0   0   0   0   0   
      0   0   0   0   0   
      0   0   0   0   0   
      0   0   0   0   0   
      0   0   0   0   0   
      0   0   0   0   0   
      0   0   0   0   0   
      0   0   0   0   0   
      0   0   0   0   0   
      0   0   0   0   0   
      0   0   0   0   0   
      0   0   0   0   0   
      0   0   0   0   0   
      0   0   0   0   0   
      0   0   0   0   0   
      0   0   0   0   0   
      0   0   0   0   0   
      0   0   0   0   0   
      0   0   0   0   0   
      0   0   0   0   0   
      0   0   0   0   0   
      0   0   0   0   0   
      0   0   0   0   0   
      0   0   0   0   0   
      0   0   0   0   0   
      0   0   0   0   0   
      0   0   0   0   0   
      0   0   0   0   0   
      0   0   0   0   0   
      0   0   0   0   0   
      0   0   0   0   0   
      0   0   0   0   0   
      0   0   0   0   0   
      0   0   0   0   0   
      0   0   0   0   0   
      0   0   0   0   0   
      0   0   0   0   0   
      0   0   0   0   0   
      0   0   0   0   0   
      0   0   0   0   0   
      0   0   0   0   0   
      0   0   0   0   0   
      0   0   0   0   0   
      0   0   0   0   0   
      0   0   0   0   0   
      0   0   0   0   0   
      0   0   0   0   0   
      0   0   0   0   0   
      0   0   0   0   0   
      0   0   0   0   0   
      0   0   0   0   0   
      0   0   0   0   0   
      0   0   0   0   0   
      0   0   0   0   0   
      0   0   0   0   0   
      0   0   0   0   0   
      0   0   0   0   0   
      0   0   0   0   0   
      0   0   0   0   0   
      0   0   0   0   0   
      0   0   0   0   0   
      0   0   0   0   0   
      0   0   0   0   0   
      0   0   0   0   0   
      0   0   0   0   0   
      0   0   0   0   0   
      0   0   0   0   0   
      0   0   0   0   0   
      0   0   0   0   0   
      0   0   0   0   0   
      0   0   0   0   0   
      0   0   0   0   0   
      0   0   0   0   0   
      0   0   0   0   0   
      0   0   0   0   0   
      0   0   0   0   0   
      0   0   0   0   0   
      0   0   0   0   0   
      0   0   0   0   0   
      0.575628657914   0.575611150024   0.575558650099   0.575471230144   0.57534901277   
      0.57519217513   0.575000954523   0.574775655717   0.574516660097   0.574224436711   
      0.573899555285   0.573542701264   0.573154692877   0.57273650015   0.572289265736   
      0.571814327255   0.571313240752   0.570787804668   0.570240083553   0.569672430563   
      0.569087507558   0.568488301486   0.567878135571   0.567260673773   0.566639916983   
      0.566020189504   0.565406114629   0.564802578381   0.564214680984   0.563647676108   
      0.563106898547   0.562597681624   0.562125266209   0.561694703832   0.561310756846   
      0.560977798923   0.560699719414   0.560479835056   0.560320812417   0.560224604095   
      0.560192401207   0.560224604095   0.560320812417   0.560479835056   0.560699719414   
      0.560977798923   0.561310756846   0.561694703832   0.562125266209   0.562597681624   
      0.563106898547   0.563647676108   0.564214680984   0.564802578381   0.565406114629   
      0.566020189504   0.566639916983   0.567260673773   0.567878135571   0.568488301486   
      0.569087507558   0.569672430563   0.570240083553   0.570787804668   0.571313240752   
      0.571814327255   0.572289265736   0.57273650015   0.573154692877   0.573542701264   
      0.573899555285   0.574224436711   0.574516660097   0.574775655717   0.575000954523   
      0.57519217513   0.57534901277   0.575471230144   0.575558650099   0.575611150024   
      0.464785823095   0.464761583088   0.464688893707   0.464567848049   0.464398605224   
      0.464181396328   0.463916532915   0.463604418068   0.46324556016   0.462840589413   
      0.462390277334   0.461895559041   0.461357558448   0.460777616127   0.460157319576   
      0.459498535384   0.458803442627   0.45807456654   0.457314811292   0.4565274904   
      0.455716353086   0.454885604692   0.45403991911   0.453184441157   0.452324776931   
      0.451466970362   0.450617464575   0.449783047183   0.448970779257   0.448187908462   
      0.447441767638   0.446739660879   0.446088739914   0.445495874235   0.444967518898   
      0.444509584241   0.444127311884   0.443825161273   0.443606710749   0.443474576664   
      0.443430353431   0.443474576664   0.443606710749   0.443825161273   0.444127311884   
      0.444509584241   0.444967518898   0.445495874235   0.446088739914   0.446739660879   
      0.447441767638   0.448187908462   0.448970779257   0.449783047183   0.450617464575   
      0.451466970362   0.452324776931   0.453184441157   0.45403991911   0.454885604692   
      0.455716353086   0.4565274904   0.457314811292   0.45807456654   0.458803442627   
      0.459498535384   0.460157319576   0.460777616127   0.461357558448   0.461895559041   
      0.462390277334   0.462840589413   0.46324556016   0.463604418068   0.463916532915   
      0.464181396328   0.464398605224   0.464567848049   0.464688893707   0.464761583088   
      0.440930491457   0.440899023912   0.440804665492   0.440647550445   0.440427907864   
      0.440146069773   0.439802482549   0.43939772179   0.438932510709   0.438407742129   
      0.437824504119   0.437184109193   0.436488126926   0.435738419644   0.434937180665   
      0.434086974333   0.433190776785   0.432252016117   0.431274610296   0.430263000864   
      0.429222180264   0.428157710391   0.427075729987   0.425982948485   0.424886624227   
      0.423794525329   0.422714872068   0.421656260379   0.420627566874   0.419637836676   
      0.418696156245   0.417811514156   0.416992653515   0.416247920162   0.415585111138   
      0.415011328005   0.414532839456   0.414154957395   0.413881930203   0.413716856345   
      0.413661620827   0.413716856345   0.413881930203   0.414154957395   0.414532839456   
      0.415011328005   0.415585111138   0.416247920162   0.416992653515   0.417811514156   
      0.418696156245   0.419637836676   0.420627566874   0.421656260379   0.422714872068   
      0.423794525329   0.424886624227   0.425982948485   0.427075729987   0.428157710391   
      0.429222180264   0.430263000864   0.431274610296   0.432252016117   0.433190776785   
      0.434086974333   0.434937180665   0.435738419644   0.436488126926   0.437184109193   
      0.437824504119   0.438407742129   0.438932510709   0.43939772179   0.439802482549   
      0.440146069773   0.440427907864   0.440647550445   0.440804665492   0.440899023912   
      0.417328448205   0.417289658456   0.417173352718   0.416979723547   0.41670909862   
      0.416361950914   0.415938913051   0.415440795872   0.414868611298   0.414223599484   
      0.41350726018   0.412721388131   0.411868112128   0.410949937168   0.409969788859   
      0.408931058963   0.407837650591   0.406694021248   0.4055052216   0.404276927526   
      0.403015462868   0.401727810172   0.400421606836   0.399105124309   0.39778722848   
      0.396477320016   0.395185254222   0.393921240929   0.392695725856   0.391519255849   
      0.390402331243   0.389355249221   0.388387942531   0.387509818112   0.386729600114   
      0.386055181589   0.385493488652   0.385050360422   0.384730447424   0.384537130569   
      0.384472462243   0.384537130569   0.384730447424   0.385050360422   0.385493488652   
      0.386055181589   0.386729600114   0.387509818112   0.388387942531   0.389355249221   
      0.390402331243   0.391519255849   0.392695725856   0.393921240929   0.395185254222   
      0.396477320016   0.39778722848   0.399105124309   0.400421606836   0.401727810172   
      0.403015462868   0.404276927526   0.4055052216   0.406694021248   0.407837650591   
      0.408931058963   0.409969788859   0.410949937168   0.411868112128   0.412721388131   
      0.41350726018   0.414223599484   0.414868611298   0.415440795872   0.415938913051   
      0.416361950914   0.41670909862   0.416979723547   0.417173352718   0.417289658456   
      0.398800870599   0.398756421556   0.398623158708   0.398401337243   0.398091390324   
      0.39769394089   0.397209818232   0.396640079371   0.39598603521   0.395249281372   
      0.394431733525   0.393535666804   0.392563758766   0.391519135011   0.390405416314   
      0.389226765752   0.387987933967   0.386694300318   0.385351907423   0.383967486327   
      0.382548469472   0.381102988717   0.379639855949   0.378168524293   0.376699028678   
      0.375241905349   0.373808090955   0.37240880286   0.37105540333   0.369759251126   
      0.36853154464   0.367383161126   0.366324496615   0.36536531091   0.364514581581   
      0.363780370262   0.363169703813   0.362688472176   0.362341344102   0.362131701393   
      0.362061591907   0.362131701393   0.362341344102   0.362688472176   0.363169703813   
      0.363780370262   0.364514581581   0.36536531091   0.366324496615   0.367383161126   
      0.36853154464   0.369759251126   0.37105540333   0.37240880286   0.373808090955   
      0.375241905349   0.376699028678   0.378168524293   0.379639855949   0.381102988717   
      0.382548469472   0.383967486327   0.385351907423   0.386694300318   0.387987933967   
      0.389226765752   0.390405416314   0.391519135011   0.392563758766   0.393535666804   
      0.394431733525   0.395249281372   0.39598603521   0.396640079371   0.397209818232   
      0.39769394089   0.398091390324   0.398401337243   0.398623158708   0.398756421556   
      0.384247438249   0.384199032922   0.384053920149   0.383812412156   0.383475037984   
      0.38304255649   0.382515974566   0.381896570508   0.381185922473   0.380385941792   
      0.379498910788   0.378527524556   0.377474935853   0.376344802007   0.375141332333   
      0.373869334223   0.372534255678   0.371142221729   0.369700061944   0.368215326082   
      0.366696285045   0.365151914481   0.363591858954   0.362026375258   0.360466254431   
      0.358922723054   0.357407325563   0.355931790402   0.35450788374   0.353147255199   
      0.351861280389   0.350660905067   0.349556495415   0.348557698288   0.347673314466   
      0.346911186988   0.346278105692   0.345779728278   0.345420517519   0.345203693861   
      0.34513120247   0.345203693861   0.345420517519   0.345779728278   0.346278105692   
      0.346911186988   0.347673314466   0.348557698288   0.349556495415   0.350660905067   
      0.351861280389   0.353147255199   0.35450788374   0.355931790402   0.357407325563   
      0.358922723054   0.360466254431   0.362026375258   0.363591858954   0.365151914481   
      0.366696285045   0.368215326082   0.369700061944   0.371142221729   0.372534255678   
      0.373869334223   0.375141332333   0.376344802007   0.377474935853   0.378527524556   
      0.379498910788   0.380385941792   0.381185922473   0.381896570508   0.382515974566   
      0.38304255649   0.383475037984   0.383812412156   0.384053920149   0.384199032922   
      0.373722301698   0.373671396998   0.373518801193   0.373264871946   0.372910214613   
      0.372455696101   0.371902464223   0.371251972451   0.370506009888   0.369666736148   
      0.368736720633   0.367718985496   0.36661705123   0.365434983533   0.364177439689   
      0.36284971234   0.361457768142   0.360008278527   0.358508639584   0.356966978082   
      0.355392140829   0.353793664998   0.35218172775   0.350567074374   0.34896092528   
      0.347374863369   0.34582070447   0.344310354639   0.342855658863   0.341468246252   
      0.34015937685   0.338939794905   0.337819592735   0.33680808842   0.33591371937   
      0.335143952735   0.334505212504   0.334002822315   0.333640962381   0.333422638659   
      0.333349662417   0.333422638659   0.333640962381   0.334002822315   0.334505212504   
      0.335143952735   0.33591371937   0.33680808842   0.337819592735   0.338939794905   
      0.34015937685   0.341468246252   0.342855658863   0.344310354639   0.34582070447   
      0.347374863369   0.34896092528   0.350567074374   0.35218172775   0.353793664998   
      0.355392140829   0.356966978082   0.358508639584   0.360008278527   0.361457768142   
      0.36284971234   0.364177439689   0.365434983533   0.36661705123   0.367718985496   
      0.368736720633   0.369666736148   0.370506009888   0.371251972451   0.371902464223   
      0.372455696101   0.372910214613   0.373264871946   0.373518801193   0.373671396998   
      0.366958673249   0.366906341091   0.366749473302   0.366488458836   0.366123955584   
      0.365656904793   0.365088551155   0.364420468428   0.363654590342   0.36279324638   
      0.361839201839   0.360795701289   0.359666514243   0.35845598148   0.357169060091   
      0.355811364903   0.354389203619   0.352909602726   0.351380321126   0.3498098485   
      0.348207385712   0.346582805158   0.344946589737   0.343309750205   0.341683721862   
      0.340080242788   0.338511217022   0.336988567125   0.335524081209   0.334129259857   
      0.332815168209   0.331592297918   0.330470442793   0.329458590739   0.328564833347   
      0.327796293228   0.327159068035   0.326658189322   0.326297593816   0.326080104521   
      0.326007419238   0.326080104521   0.326297593816   0.326658189322   0.327159068035   
      0.327796293228   0.328564833347   0.329458590739   0.330470442793   0.331592297918   
      0.332815168209   0.334129259857   0.335524081209   0.336988567125   0.338511217022   
      0.340080242788   0.341683721862   0.343309750205   0.344946589737   0.346582805158   
      0.348207385712   0.3498098485   0.351380321126   0.352909602726   0.354389203619   
      0.355811364903   0.357169060091   0.35845598148   0.359666514243   0.360795701289   
      0.361839201839   0.36279324638   0.363654590342   0.364420468428   0.365088551155   
      0.365656904793   0.366123955584   0.366488458836   0.366749473302   0.366906341091   
      0.363668837771   0.363615864649   0.363457079262   0.363192886504   0.362823971022   
      0.362351311915   0.361776203183   0.361100279768   0.360325548896   0.359454426276   
      0.358489776484   0.357434956576   0.356293861672   0.355070970844   0.353771391282   
      0.352400898287   0.350965968352   0.349473802308   0.34793233546   0.346350231742   
      0.344736859292   0.343102245476   0.341457010287   0.339812278147   0.338179569414   
      0.336570674165   0.334997512019   0.333471982757   0.332005813075   0.330610405047   
      0.329296691595   0.32807500358   0.326954952101   0.325945328294   0.325054021595   
      0.324287956074   0.323653043383   0.323154149976   0.322795075803   0.322578541556   
      0.322506181759   0.322578541556   0.322795075803   0.323154149976   0.323653043383   
      0.324287956074   0.325054021595   0.325945328294   0.326954952101   0.32807500358   
      0.329296691595   0.330610405047   0.332005813075   0.333471982757   0.334997512019   
      0.336570674165   0.338179569414   0.339812278147   0.341457010287   0.343102245476   
      0.344736859292   0.346350231742   0.34793233546   0.349473802308   0.350965968352   
      0.352400898287   0.353771391282   0.355070970844   0.356293861672   0.357434956576   
      0.358489776484   0.359454426276   0.360325548896   0.361100279768   0.361776203183   
      0.362351311915   0.362823971022   0.363192886504   0.363457079262   0.363615864649   
      0.363668837771   0.363615864649   0.363457079262   0.363192886504   0.362823971022   
      0.362351311915   0.361776203183   0.361100279768   0.360325548896   0.359454426276   
      0.358489776484   0.357434956576   0.356293861672   0.355070970844   0.353771391282   
      0.352400898287   0.350965968352   0.349473802308   0.34793233546   0.346350231742   
      0.344736859292   0.343102245476   0.341457010287   0.339812278147   0.338179569414   
      0.336570674165   0.334997512019   0.333471982757   0.332005813075   0.330610405047   
      0.329296691595   0.32807500358   0.326954952101   0.325945328294   0.325054021595   
      0.324287956074   0.323653043383   0.323154149976   0.322795075803   0.322578541556   
      0.322506181759   0.322578541556   0.322795075803   0.323154149976   0.323653043383   
      0.324287956074   0.325054021595   0.325945328294   0.326954952101   0.32807500358   
      0.329296691595   0.330610405047   0.332005813075   0.333471982757   0.334997512019   
      0.336570674165   0.338179569414   0.339812278147   0.341457010287   0.343102245476   
      0.344736859292   0.346350231742   0.34793233546   0.349473802308   0.350965968352   
      0.352400898287   0.353771391282   0.355070970844   0.356293861672   0.357434956576   
      0.358489776484   0.359454426276   0.360325548896   0.361100279768   0.361776203183   
      0.362351311915   0.362823971022   0.363192886504   0.363457079262   0.363615864649   
      0.366958673249   0.366906341091   0.366749473302   0.366488458836   0.366123955584   
      0.365656904793   0.365088551155   0.364420468428   0.363654590342   0.36279324638   
      0.361839201839   0.360795701289   0.359666514243   0.35845598148   0.357169060091   
      0.355811364903   0.354389203619   0.352909602726   0.351380321126   0.3498098485   
      0.348207385712   0.346582805158   0.344946589737   0.343309750205   0.341683721862   
      0.340080242788   0.338511217022   0.336988567125   0.335524081209   0.334129259857   
      0.332815168209   0.331592297918   0.330470442793   0.329458590739   0.328564833347   
      0.327796293228   0.327159068035   0.326658189322   0.326297593816   0.326080104521   
      0.326007419238   0.326080104521   0.326297593816   0.326658189322   0.327159068035   
      0.327796293228   0.328564833347   0.329458590739   0.330470442793   0.331592297918   
      0.332815168209   0.334129259857   0.335524081209   0.336988567125   0.338511217022   
      0.340080242788   0.341683721862   0.343309750205   0.344946589737   0.346582805158   
      0.348207385712   0.3498098485   0.351380321126   0.352909602726   0.354389203619   
      0.355811364903   0.357169060091   0.35845598148   0.359666514243   0.360795701289   
      0.361839201839   0.36279324638   0.363654590342   0.364420468428   0.365088551155   
      0.365656904793   0.366123955584   0.366488458836   0.366749473302   0.366906341091   
      0.373722301698   0.373671396998   0.373518801193   0.373264871946   0.372910214613   
      0.372455696101   0.371902464223   0.371251972451   0.370506009888   0.369666736148   
      0.368736720633   0.367718985496   0.36661705123   0.365434983533   0.364177439689   
      0.36284971234   0.361457768142   0.360008278527   0.358508639584   0.356966978082   
      0.355392140829   0.353793664998   0.35218172775   0.350567074374   0.34896092528   
      0.347374863369   0.34582070447   0.344310354639   0.342855658863   0.341468246252   
      0.34015937685   0.338939794905   0.337819592735   0.33680808842   0.33591371937   
      0.335143952735   0.334505212504   0.334002822315   0.333640962381   0.333422638659   
      0.333349662417   0.333422638659   0.333640962381   0.334002822315   0.334505212504   
      0.335143952735   0.33591371937   0.33680808842   0.337819592735   0.338939794905   
      0.34015937685   0.341468246252   0.342855658863   0.344310354639   0.34582070447   
      0.347374863369   0.34896092528   0.350567074374   0.35218172775   0.353793664998   
      0.355392140829   0.356966978082   0.358508639584   0.360008278527   0.361457768142   
      0.36284971234   0.364177439689   0.365434983533   0.36661705123   0.367718985496   
      0.368736720633   0.369666736148   0.370506009888   0.371251972451   0.371902464223   
      0.372455696101   0.372910214613   0.373264871946   0.373518801193   0.373671396998   
      0.384247438249   0.384199032922   0.384053920149   0.383812412156   0.383475037984   
      0.38304255649   0.382515974566   0.381896570508   0.381185922473   0.380385941792   
      0.379498910788   0.378527524556   0.377474935853   0.376344802007   0.375141332333   
      0.373869334223   0.372534255678   0.371142221729   0.369700061944   0.368215326082   
      0.366696285045   0.365151914481   0.363591858954   0.362026375258   0.360466254431   
      0.358922723054   0.357407325563   0.355931790402   0.35450788374   0.353147255199   
      0.351861280389   0.350660905067   0.349556495415   0.348557698288   0.347673314466   
      0.346911186988   0.346278105692   0.345779728278   0.345420517519   0.345203693861   
      0.34513120247   0.345203693861   0.345420517519   0.345779728278   0.346278105692   
      0.346911186988   0.347673314466   0.348557698288   0.349556495415   0.350660905067   
      0.351861280389   0.353147255199   0.35450788374   0.355931790402   0.357407325563   
      0.358922723054   0.360466254431   0.362026375258   0.363591858954   0.365151914481   
      0.366696285045   0.368215326082   0.369700061944   0.371142221729   0.372534255678   
      0.373869334223   0.375141332333   0.376344802007   0.377474935853   0.378527524556   
      0.379498910788   0.380385941792   0.381185922473   0.381896570508   0.382515974566   
      0.38304255649   0.383475037984   0.383812412156   0.384053920149   0.384199032922   
      0.398800870599   0.398756421556   0.398623158708   0.398401337243   0.398091390324   
      0.39769394089   0.397209818232   0.396640079371   0.39598603521   0.395249281372   
      0.394431733525   0.393535666804   0.392563758766   0.391519135011   0.390405416314   
      0.389226765752   0.387987933967   0.386694300318   0.385351907423   0.383967486327   
      0.382548469472   0.381102988717   0.379639855949   0.378168524293   0.376699028678   
      0.375241905349   0.373808090955   0.37240880286   0.37105540333   0.369759251126   
      0.36853154464   0.367383161126   0.366324496615   0.36536531091   0.364514581581   
      0.363780370262   0.363169703813   0.362688472176   0.362341344102   0.362131701393   
      0.362061591907   0.362131701393   0.362341344102   0.362688472176   0.363169703813   
      0.363780370262   0.364514581581   0.36536531091   0.366324496615   0.367383161126   
      0.36853154464   0.369759251126   0.37105540333   0.37240880286   0.373808090955   
      0.375241905349   0.376699028678   0.378168524293   0.379639855949   0.381102988717   
      0.382548469472   0.383967486327   0.385351907423   0.386694300318   0.387987933967   
      0.389226765752   0.390405416314   0.391519135011   0.392563758766   0.393535666804   
      0.394431733525   0.395249281372   0.39598603521   0.396640079371   0.397209818232   
      0.39769394089   0.398091390324   0.398401337243   0.398623158708   0.398756421556   
      0.417328448205   0.417289658456   0.417173352718   0.416979723547   0.41670909862   