<?xml version="1.0"?>
<VTKFile type="ImageData" version="0.1" byte_order="LittleEndian">
  <ImageData WholeExtent="0 79 0 19 0 19" Origin="0 0 0" Spacing="1 1 1">
  <Piece Extent="0 79 0 19 0 19">
    <PointData Scalars="density">
       <DataArray type="Float32" Name="bluedensity" NumberOfComponents="1" format="ascii">
      0   0   0   0   0   
      0   0   0   0   0   
      0   0   0   0   0   
      0   0   0   0   0   
      0   0   0   0   0   
      0   0   0   0   0   
      0   0   0   0   0   
      0   0   0   0   0   
      0   0   0   0   0   
      0   0   0   0   0   
      0   0   0   0   0   
      0   0   0   0   0   
      0   0   0   0   0   
      0   0   0   0   0   
      0   0   0   0   0   
      0   0   0   0   0   
      0   0   0   0   0   
      0   0   0   0   0   
      0   0   0   0   0   
      0   0   0   0   0   
      0   0   0   0   0   
      0   0   0   0   0   
      0   0   0   0   0   
      0   0   0   0   0   
      0   0   0   0   0   
      0   0   0   0   0   
      0   0   0   0   0   
      0   0   0   0   0   
      0   0   0   0   0   
      0   0   0   0   0   
      0   0   0   0   0   
      0   0   0   0   0   
      0   0   0   0   0   
      0   0   0   0   0   
      0   0   0   0   0   
      0   0   0   0   0   
      0   0   0   0   0   
      0   0   0   0   0   
      0   0   0   0   0   
      0   0   0   0   0   
      0   0   0   0   0   
      0   0   0   0   0   
      0   0   0   0   0   
      0   0   0   0   0   
      0   0   0   0   0   
      0   0   0   0   0   
      0   0   0   0   0   
      0   0   0   0   0   
      0   0   0   0   0   
      0   0   0   0   0   
      0   0   0   0   0   
      0   0   0   0   0   
      0   0   0   0   0   
      0   0   0   0   0   
      0   0   0   0   0   
      0   0   0   0   0   
      0   0   0   0   0   
      0   0   0   0   0   
      0   0   0   0   0   
      0   0   0   0   0   
      0   0   0   0   0   
      0   0   0   0   0   
      0   0   0   0   0   
      0   0   0   0   0   
      0   0   0   0   0   
      0   0   0   0   0   
      0   0   0   0   0   
      0   0   0   0   0   
      0   0   0   0   0   
      0   0   0   0   0   
      0   0   0   0   0   
      0   0   0   0   0   
      0   0   0   0   0   
      0   0   0   0   0   
      0   0   0   0   0   
      0   0   0   0   0   
      0   0   0   0   0   
      0   0   0   0   0   
      0   0   0   0   0   
      0   0   0   0   0   
      0   0   0   0   0   
      0   0   0   0   0   
      0   0   0   0   0   
      0   0   0   0   0   
      0   0   0   0   0   
      0   0   0   0   0   
      0   0   0   0   0   
      0   0   0   0   0   
      0   0   0   0   0   
      0   0   0   0   0   
      0   0   0   0   0   
      0   0   0   0   0   
      0   0   0   0   0   
      0   0   0   0   0   
      0   0   0   0   0   
      0   0   0   0   0   
      0   0   0   0   0   
      0   0   0   0   0   
      0   0   0   0   0   
      0   0   0   0   0   
      0   0   0   0   0   
      0   0   0   0   0   
      0   0   0   0   0   
      0   0   0   0   0   
      0   0   0   0   0   
      0   0   0   0   0   
      0   0   0   0   0   
      0   0   0   0   0   
      0   0   0   0   0   
      0   0   0   0   0   
      0   0   0   0   0   
      0   0   0   0   0   
      0   0   0   0   0   
      0   0   0   0   0   
      0   0   0   0   0   
      0   0   0   0   0   
      0   0   0   0   0   
      0   0   0   0   0   
      0   0   0   0   0   
      0   0   0   0   0   
      0   0   0   0   0   
      0   0   0   0   0   
      0   0   0   0   0   
      0   0   0   0   0   
      0   0   0   0   0   
      0   0   0   0   0   
      0   0   0   0   0   
      0   0   0   0   0   
      0   0   0   0   0   
      0   0   0   0   0   
      0   0   0   0   0   
      0   0   0   0   0   
      0   0   0   0   0   
      0   0   0   0   0   
      0   0   0   0   0   
      0   0   0   0   0   
      0   0   0   0   0   
      0   0   0   0   0   
      0   0   0   0   0   
      0   0   0   0   0   
      0   0   0   0   0   
      0   0   0   0   0   
      0   0   0   0   0   
      0   0   0   0   0   
      0   0   0   0   0   
      0   0   0   0   0   
      0   0   0   0   0   
      0   0   0   0   0   
      0   0   0   0   0   
      0   0   0   0   0   
      0   0   0   0   0   
      0   0   0   0   0   
      0   0   0   0   0   
      0   0   0   0   0   
      0   0   0   0   0   
      0   0   0   0   0   
      0   0   0   0   0   
      0   0   0   0   0   
      0   0   0   0   0   
      0   0   0   0   0   
      0   0   0   0   0   
      0   0   0   0   0   
      0   0   0   0   0   
      0   0   0   0   0   
      0   0   0   0   0   
      0   0   0   0   0   
      0   0   0   0   0   
      0   0   0   0   0   
      0   0   0   0   0   
      0   0   0   0   0   
      0   0   0   0   0   
      0   0   0   0   0   
      0   0   0   0   0   
      0   0   0   0   0   
      0   0   0   0   0   
      0   0   0   0   0   
      0   0   0   0   0   
      0   0   0   0   0   
      0   0   0   0   0   
      0   0   0   0   0   
      0   0   0   0   0   
      0   0   0   0   0   
      0   0   0   0   0   
      0   0   0   0   0   
      0   0   0   0   0   
      0   0   0   0   0   
      0   0   0   0   0   
      0   0   0   0   0   
      0   0   0   0   0   
      0   0   0   0   0   
      0   0   0   0   0   
      0   0   0   0   0   
      0   0   0   0   0   
      0   0   0   0   0   
      0   0   0   0   0   
      0   0   0   0   0   
      0   0   0   0   0   
      0   0   0   0   0   
      0   0   0   0   0   
      0   0   0   0   0   
      0   0   0   0   0   
      0   0   0   0   0   
      0   0   0   0   0   
      0   0   0   0   0   
      0   0   0   0   0   
      0   0   0   0   0   
      0   0   0   0   0   
      0   0   0   0   0   
      0   0   0   0   0   
      0   0   0   0   0   
      0   0   0   0   0   
      0   0   0   0   0   
      0   0   0   0   0   
      0   0   0   0   0   
      0   0   0   0   0   
      0   0   0   0   0   
      0   0   0   0   0   
      0   0   0   0   0   
      0   0   0   0   0   
      0   0   0   0   0   
      0   0   0   0   0   
      0   0   0   0   0   
      0   0   0   0   0   
      0   0   0   0   0   
      0   0   0   0   0   
      0   0   0   0   0   
      0   0   0   0   0   
      0   0   0   0   0   
      0   0   0   0   0   
      0   0   0   0   0   
      0   0   0   0   0   
      0   0   0   0   0   
      0   0   0   0   0   
      0   0   0   0   0   
      0   0   0   0   0   
      0   0   0   0   0   
      0   0   0   0   0   
      0   0   0   0   0   
      0   0   0   0   0   
      0   0   0   0   0   
      0   0   0   0   0   
      0   0   0   0   0   
      0   0   0   0   0   
      0   0   0   0   0   
      0   0   0   0   0   
      0   0   0   0   0   
      0   0   0   0   0   
      0   0   0   0   0   
      0   0   0   0   0   
      0   0   0   0   0   
      0   0   0   0   0   
      0   0   0   0   0   
      0   0   0   0   0   
      0   0   0   0   0   
      0   0   0   0   0   
      0   0   0   0   0   
      0   0   0   0   0   
      0   0   0   0   0   
      0   0   0   0   0   
      0   0   0   0   0   
      0   0   0   0   0   
      0   0   0   0   0   
      0   0   0   0   0   
      0   0   0   0   0   
      0   0   0   0   0   
      0   0   0   0   0   
      0   0   0   0   0   
      0   0   0   0   0   
      0   0   0   0   0   
      0   0   0   0   0   
      0   0   0   0   0   
      0   0   0   0   0   
      0   0   0   0   0   
      0   0   0   0   0   
      0   0   0   0   0   
      0   0   0   0   0   
      0   0   0   0   0   
      0   0   0   0   0   
      0   0   0   0   0   
      0   0   0   0   0   
      0   0   0   0   0   
      0   0   0   0   0   
      0   0   0   0   0   
      0   0   0   0   0   
      0   0   0   0   0   
      0   0   0   0   0   
      0   0   0   0   0   
      0   0   0   0   0   
      0   0   0   0   0   
      0   0   0   0   0   
      0   0   0   0   0   
      0   0   0   0   0   
      0   0   0   0   0   
      0   0   0   0   0   
      0   0   0   0   0   
      0   0   0   0   0   
      0   0   0   0   0   
      0   0   0   0   0   
      0   0   0   0   0   
      0   0   0   0   0   
      0   0   0   0   0   
      0   0   0   0   0   
      0   0   0   0   0   
      0   0   0   0   0   
      0   0   0   0   0   
      0   0   0   0   0   
      0   0   0   0   0   
      0   0   0   0   0   
      0   0   0   0   0   
      0   0   0   0   0   
      0   0   0   0   0   
      0   0   0   0   0   
      0   0   0   0   0   
      0   0   0   0   0   
      0   0   0   0   0   
      0   0   0   0   0   
      0   0   0   0   0   
      0   0   0   0   0   
      0   0   0   0   0   
      0   0   0   0   0   
      0   0   0   0   0   
      0   0   0   0   0   
      0   0   0   0   0   
      0   0   0   0   0   
      0   0   0   0   0   
      0   0   0   0   0   
      0   0   0   0   0   
      0   0   0   0   0   
      0   0   0   0   0   
      0   0   0   0   0   
      0   0   0   0   0   
      0   0   0   0   0   
      0   0   0   0   0   
      0   0   0   0   0   
      0   0   0   0   0   
      0   0   0   0   0   
      0.579222249745   0.579196521533   0.579119321875   0.578990606383   0.578810303422   
      0.578578317817   0.578294536465   0.577958836254   0.577571094864   0.577131205147   
      0.576639093909   0.576094746092   0.575498235388   0.574849762412   0.574149701485   
      0.573398656926   0.572597529427   0.571747592553   0.570850578697   0.569908772854   
      0.568925111416   0.567903281967   0.566847818699   0.565764186953   0.564658849453   
      0.563539306415   0.562414101871   0.561292789465   0.560185852606   0.559104576192   
      0.558060869907   0.557067046227   0.556135559304   0.555278713759   0.554508354589   
      0.55383555101   0.553270287692   0.552821176801   0.55249520336   0.552297514957   
      0.552231264825   0.552297514957   0.55249520336   0.552821176801   0.553270287692   
      0.55383555101   0.554508354589   0.555278713759   0.556135559304   0.557067046227   
      0.558060869907   0.559104576192   0.560185852606   0.561292789465   0.562414101871   
      0.563539306415   0.564658849453   0.565764186953   0.566847818699   0.567903281967   
      0.568925111416   0.569908772854   0.570850578697   0.571747592553   0.572597529427   
      0.573398656926   0.574149701485   0.574849762412   0.575498235388   0.576094746092   
      0.576639093909   0.577131205147   0.577571094864   0.577958836254   0.578294536465   
      0.578578317817   0.578810303422   0.578990606383   0.579119321875   0.579196521533   
      0.470028095556   0.469992670227   0.469886364987   0.469709093223   0.469460714518   
      0.469141040866   0.468749846012   0.468286878566   0.467751879736   0.467144606723   
      0.466464863014   0.465712536953   0.464887650047   0.463990416499   0.463021315233   
      0.46198117541   0.460871275759   0.459693457233   0.458450247273   0.457144992564   
      0.455781995439   0.454366647416   0.452905551634   0.451406624685   0.449879167545   
      0.44833389535   0.446782916737   0.445239655481   0.443718710045   0.442235650339   
      0.440806754974   0.439448696297   0.438178184048   0.43701158124   0.435964507571   
      0.435051446336   0.434285370333   0.433677400987   0.433236512978   0.432969294434   
      0.432879770328   0.432969294434   0.433236512978   0.433677400987   0.434285370333   
      0.435051446336   0.435964507571   0.43701158124   0.438178184048   0.439448696297   
      0.440806754974   0.442235650339   0.443718710045   0.445239655481   0.446782916737   
      0.44833389535   0.449879167545   0.451406624685   0.452905551634   0.454366647416   
      0.455781995439   0.457144992564   0.458450247273   0.459693457233   0.460871275759   
      0.46198117541   0.463021315233   0.463990416499   0.464887650047   0.465712536953   
      0.466464863014   0.467144606723   0.467751879736   0.468286878566   0.468749846012   
      0.469141040866   0.469460714518   0.469709093223   0.469886364987   0.469992670227   
      0.447945996344   0.447899845718   0.447761361029   0.447530445648   0.447206944672   
      0.446790654562   0.446281337508   0.44567874137   0.444982626326   0.444192799574   
      0.443309159627   0.442331751897   0.441260837263   0.440096975213   0.438841122747   
      0.437494749653   0.43605996974   0.434539686303   0.432937748412   0.431259112647   
      0.429510002786   0.427698057949   0.425832458037   0.423924014284   0.42198521279   
      0.420030200036   0.418074701869   0.41613587113   0.414232063575   0.41238254672   
      0.410607150996   0.408925876623   0.407358472423   0.405924004087   0.404640429202   
      0.403524194739   0.402589870174   0.40184982638   0.401313967327   0.400989518974   
      0.400880877664   0.400989518974   0.401313967327   0.40184982638   0.402589870174   
      0.403524194739   0.404640429202   0.405924004087   0.407358472423   0.408925876623   
      0.410607150996   0.41238254672   0.414232063575   0.41613587113   0.418074701869   
      0.420030200036   0.42198521279   0.423924014284   0.425832458037   0.427698057949   
      0.429510002786   0.431259112647   0.432937748412   0.434539686303   0.43605996974   
      0.437494749653   0.438841122747   0.440096975213   0.441260837263   0.442331751897   
      0.443309159627   0.444192799574   0.444982626326   0.44567874137   0.446281337508   
      0.446790654562   0.447206944672   0.447530445648   0.447761361029   0.447899845718   
      0.42618083824   0.426123526631   0.425951565784   0.425664880243   0.425263353078   
      0.42474683968   0.424115188159   0.42336826744   0.422506004417   0.42152843179   
      0.420435748379   0.41922839378   0.417907139123   0.416473195318   0.414928339565   
      0.413275059805   0.411516715369   0.409657710181   0.40770367263   0.405661633803   
      0.403540193384   0.401349660538   0.399102155883   0.39681166067   0.394494000685   
      0.392166755494   0.389849088165   0.387561496229   0.385325490714   0.383163215816   
      0.381097026371   0.379149043107   0.377340706366   0.375692347547   0.374222794343   
      0.37294902145   0.371885853599   0.371045723256   0.370438481595   0.370071258969   
      0.369948370034   0.370071258969   0.370438481595   0.371045723256   0.371885853599   
      0.37294902145   0.374222794343   0.375692347547   0.377340706366   0.379149043107   
      0.381097026371   0.383163215816   0.385325490714   0.387561496229   0.389849088165   
      0.392166755494   0.394494000685   0.39681166067   0.399102155883   0.401349660538   
      0.403540193384   0.405661633803   0.40770367263   0.409657710181   0.411516715369   
      0.413275059805   0.414928339565   0.416473195318   0.417907139123   0.41922839378   
      0.420435748379   0.42152843179   0.422506004417   0.42336826744   0.424115188159   
      0.42474683968   0.425263353078   0.425664880243   0.425951565784   0.426123526631   
      0.409120619691   0.409054374046   0.40885562703   0.408524351769   0.408060514924   
      0.407464094499   0.406735106074   0.405873638693   0.404879901986   0.403754286303   
      0.402497437776   0.40111035017   0.39959447508   0.397951851404   0.396185254015   
      0.394298360016   0.392295929035   0.39018399156   0.387970036686   0.385663187871   
      0.38327435305   0.380816333861   0.37830387861   0.375753665062   0.373184202594   
      0.370615648505   0.368069539887   0.365568449738   0.36313558283   0.360794332284   
      0.358567820949   0.35647845208   0.354547491387   0.352794697857   0.351238014523   
      0.349893323617   0.348774264322   0.347892106239   0.34725566842   0.346871272363   
      0.346742717835   0.346871272363   0.34725566842   0.347892106239   0.348774264322   
      0.349893323617   0.351238014523   0.352794697857   0.354547491387   0.35647845208   
      0.358567820949   0.360794332284   0.36313558283   0.365568449738   0.368069539887   
      0.370615648505   0.373184202594   0.375753665062   0.37830387861   0.380816333861   
      0.38327435305   0.385663187871   0.387970036686   0.39018399156   0.392295929035   
      0.394298360016   0.396185254015   0.397951851404   0.39959447508   0.40111035017   
      0.402497437776   0.403754286303   0.404879901986   0.405873638693   0.406735106074   
      0.407464094499   0.408060514924   0.408524351769   0.40885562703   0.409054374046   
      0.395627953983   0.395555236864   0.395337093996   0.394973554934   0.394464682745   
      0.393810595462   0.393011497557   0.392067722819   0.39097979033   0.389748475428   
      0.388374897553   0.386860626714   0.38520780976   0.383419316727   0.381498906098   
      0.379451405893   0.377282905018   0.375000946499   0.372614711213   0.370135178028   
      0.367575244254   0.364949789649   0.362275668356   0.359571616484   0.356858068538   
      0.354156883231   0.351490987472   0.348883955509   0.346359546858   0.343941230795   
      0.341651726048   0.339512581681   0.337543819622   0.335763651659   0.334188275306   
      0.332831744982   0.331705908311   0.330820392876   0.33018262647   0.329797873907   
      0.329669275282   0.329797873907   0.33018262647   0.330820392876   0.331705908311   
      0.332831744982   0.334188275306   0.335763651659   0.337543819622   0.339512581681   
      0.341651726048   0.343941230795   0.346359546858   0.348883955509   0.351490987472   
      0.354156883231   0.356858068538   0.359571616484   0.362275668356   0.364949789649   
      0.367575244254   0.370135178028   0.372614711213   0.375000946499   0.377282905018   
      0.379451405893   0.381498906098   0.383419316727   0.38520780976   0.386860626714   
      0.388374897553   0.389748475428   0.39097979033   0.392067722819   0.393011497557   
      0.393810595462   0.394464682745   0.394973554934   0.395337093996   0.395555236864   
      0.385796779377   0.385719820851   0.385488970194   0.38510430684   0.384565979014   
      0.383874228266   0.38302942538   0.382032119136   0.380883099669   0.379583478351   
      0.378134786025   0.376539091089   0.374799138178   0.372918506979   0.370901788936   
      0.368754777278   0.366484662963   0.364100225989   0.361612008439   0.359032453025   
      0.356375989472   0.353659051383   0.350900008756   0.348119006391   0.345337705687   
      0.342578936244   0.339866272955   0.337223562589   0.334674429706   0.332241794082   
      0.329947430233   0.327811594207   0.325852734679   0.324087295776   0.322529609413   
      0.32119186666   0.320084151555   0.319214517241   0.318589083386   0.318212135057   
      0.318086206213   0.318212135057   0.318589083386   0.319214517241   0.320084151555   
      0.32119186666   0.322529609413   0.324087295776   0.325852734679   0.327811594207   
      0.329947430233   0.332241794082   0.334674429706   0.337223562589   0.339866272955   
      0.342578936244   0.345337705687   0.348119006391   0.350900008756   0.353659051383   
      0.356375989472   0.359032453025   0.361612008439   0.364100225989   0.366484662963   
      0.368754777278   0.370901788936   0.372918506979   0.374799138178   0.376539091089   
      0.378134786025   0.379583478351   0.380883099669   0.382032119136   0.38302942538   
      0.383874228266   0.384565979014   0.38510430684   0.385488970194   0.385719820851   
      0.3794422565   0.379362791736   0.37912443416   0.378727299053   0.378171595892   
      0.377457655203   0.376585967776   0.37555723777   0.374372451505   0.373032963816   
      0.371540603721   0.369897800673   0.368107731722   0.36617448852   0.364103261016   
      0.361900532117   0.35957427448   0.357134137308   0.354591607912   0.351960130441   
      0.349255163297   0.346494157866   0.343696444924   0.34088302135   0.338076238391   
      0.33529940253   0.332576309761   0.329930742133   0.327385960253   0.324964226206   
      0.322686387724   0.320571547084   0.318636828368   0.316897245961   0.31536566714   
      0.314052853494   0.312967560524   0.312116672232   0.311505347594   0.311137157964   
      0.311014198095   0.311137157964   0.311505347594   0.312116672232   0.312967560524   
      0.314052853494   0.31536566714   0.316897245961   0.318636828368   0.320571547084   
      0.322686387724   0.324964226206   0.327385960253   0.329930742133   0.332576309761   
      0.33529940253   0.338076238391   0.34088302135   0.343696444924   0.346494157866   
      0.349255163297   0.351960130441   0.354591607912   0.357134137308   0.35957427448   
      0.361900532117   0.364103261016   0.36617448852   0.368107731722   0.369897800673   
      0.371540603721   0.373032963816   0.374372451505   0.37555723777   0.376585967776   
      0.377457655203   0.378171595892   0.378727299053   0.37912443416   0.379362791736   
      0.376340439592   0.376259820263   0.376018005105   0.375615127978   0.375051430151   
      0.374327288395   0.373443255985   0.37240011814   0.371198963695   0.369841274894   
      0.368329036943   0.366664868477   0.36485217303   0.362895310054   0.36079978187   
      0.358572430146   0.35622163233   0.353757485063   0.351191958522   0.348539003472   
      0.34581459218   0.343036676041   0.340225047013   0.337401097017   0.334587478626   
      0.331807680638   0.329085542023   0.326444735507   0.323908256261   0.321497951005   
      0.319234118122   0.317135201032   0.315217586403   0.313495507593   0.311981043552   
      0.310684195585   0.309613019405   0.308773787972   0.308171161224   0.307808341448   
      0.307687196965   0.307808341448   0.308171161224   0.308773787972   0.309613019405   
      0.310684195585   0.311981043552   0.313495507593   0.315217586403   0.317135201032   
      0.319234118122   0.321497951005   0.323908256261   0.326444735507   0.329085542023   
      0.331807680638   0.334587478626   0.337401097017   0.340225047013   0.343036676041   
      0.34581459218   0.348539003472   0.351191958522   0.353757485063   0.35622163233   
      0.358572430146   0.36079978187   0.362895310054   0.36485217303   0.366664868477   
      0.368329036943   0.369841274894   0.371198963695   0.37240011814   0.373443255985   
      0.374327288395   0.375051430151   0.375615127978   0.376018005105   0.376259820263   
      0.376340439592   0.376259820263   0.376018005105   0.375615127978   0.375051430151   
      0.374327288395   0.373443255985   0.37240011814   0.371198963695   0.369841274894   
      0.368329036943   0.366664868477   0.36485217303   0.362895310054   0.36079978187   
      0.358572430146   0.35622163233   0.353757485063   0.351191958522   0.348539003472   
      0.34581459218   0.343036676041   0.340225047013   0.337401097017   0.334587478626   
      0.331807680638   0.329085542023   0.326444735507   0.323908256261   0.321497951005   
      0.319234118122   0.317135201032   0.315217586403   0.313495507593   0.311981043552   
      0.310684195585   0.309613019405   0.308773787972   0.308171161224   0.307808341448   
      0.307687196965   0.307808341448   0.308171161224   0.308773787972   0.309613019405   
      0.310684195585   0.311981043552   0.313495507593   0.315217586403   0.317135201032   
      0.319234118122   0.321497951005   0.323908256261   0.326444735507   0.329085542023   
      0.331807680638   0.334587478626   0.337401097017   0.340225047013   0.343036676041   
      0.34581459218   0.348539003472   0.351191958522   0.353757485063   0.35622163233   
      0.358572430146   0.36079978187   0.362895310054   0.36485217303   0.366664868477   
      0.368329036943   0.369841274894   0.371198963695   0.37240011814   0.373443255985   
      0.374327288395   0.375051430151   0.375615127978   0.376018005105   0.376259820263   
      0.3794422565   0.379362791736   0.37912443416   0.378727299053   0.378171595892   
      0.377457655203   0.376585967776   0.37555723777   0.374372451505   0.373032963816   
      0.371540603721   0.369897800673   0.368107731722   0.36617448852   0.364103261016   
      0.361900532117   0.35957427448   0.357134137308   0.354591607912   0.351960130441   
      0.349255163297   0.346494157866   0.343696444924   0.34088302135   0.338076238391   
      0.33529940253   0.332576309761   0.329930742133   0.327385960253   0.324964226206   
      0.322686387724   0.320571547084   0.318636828368   0.316897245961   0.31536566714   
      0.314052853494   0.312967560524   0.312116672232   0.311505347594   0.311137157964   
      0.311014198095   0.311137157964   0.311505347594   0.312116672232   0.312967560524   
      0.314052853494   0.31536566714   0.316897245961   0.318636828368   0.320571547084   
      0.322686387724   0.324964226206   0.327385960253   0.329930742133   0.332576309761   
      0.33529940253   0.338076238391   0.34088302135   0.343696444924   0.346494157866   
      0.349255163297   0.351960130441   0.354591607912   0.357134137308   0.35957427448   
      0.361900532117   0.364103261016   0.36617448852   0.368107731722   0.369897800673   
      0.371540603721   0.373032963816   0.374372451505   0.37555723777   0.376585967776   
      0.377457655203   0.378171595892   0.378727299053   0.37912443416   0.379362791736   
      0.385796779377   0.385719820851   0.385488970194   0.38510430684   0.384565979014   
      0.383874228266   0.38302942538   0.382032119136   0.380883099669   0.379583478351   
      0.378134786025   0.376539091089   0.374799138178   0.372918506979   0.370901788936   
      0.368754777278   0.366484662963   0.364100225989   0.361612008439   0.359032453025   
      0.356375989472   0.353659051383   0.350900008756   0.348119006391   0.345337705687   
      0.342578936244   0.339866272955   0.337223562589   0.334674429706   0.332241794082   
      0.329947430233   0.327811594207   0.325852734679   0.324087295776   0.322529609413   
      0.32119186666   0.320084151555   0.319214517241   0.318589083386   0.318212135057   
      0.318086206213   0.318212135057   0.318589083386   0.319214517241   0.320084151555   
      0.32119186666   0.322529609413   0.324087295776   0.325852734679   0.327811594207   
      0.329947430233   0.332241794082   0.334674429706   0.337223562589   0.339866272955   
      0.342578936244   0.345337705687   0.348119006391   0.350900008756   0.353659051383   
      0.356375989472   0.359032453025   0.361612008439   0.364100225989   0.366484662963   
      0.368754777278   0.370901788936   0.372918506979   0.374799138178   0.376539091089   
      0.378134786025   0.379583478351   0.380883099669   0.382032119136   0.38302942538   
      0.383874228266   0.384565979014   0.38510430684   0.385488970194   0.385719820851   
      0.395627953983   0.395555236864   0.395337093996   0.394973554934   0.394464682745   
      0.393810595462   0.393011497557   0.392067722819   0.39097979033   0.389748475428   
      0.388374897553   0.386860626714   0.38520780976   0.383419316727   0.381498906098   
      0.379451405893   0.377282905018   0.375000946499   0.372614711213   0.370135178028   
      0.367575244254   0.364949789649   0.362275668356   0.359571616484   0.356858068538   
      0.354156883231   0.351490987472   0.348883955509   0.346359546858   0.343941230795   
      0.341651726048   0.339512581681   0.337543819622   0.335763651659   0.334188275306   
      0.332831744982   0.331705908311   0.330820392876   0.33018262647   0.329797873907   
      0.329669275282   0.329797873907   0.33018262647   0.330820392876   0.331705908311   
      0.332831744982   0.334188275306   0.335763651659   0.337543819622   0.339512581681   
      0.341651726048   0.343941230795   0.346359546858   0.348883955509   0.351490987472   
      0.354156883231   0.356858068538   0.359571616484   0.362275668356   0.364949789649   
      0.367575244254   0.370135178028   0.372614711213   0.375000946499   0.377282905018   
      0.379451405893   0.381498906098   0.383419316727   0.38520780976   0.386860626714   
      0.388374897553   0.389748475428   0.39097979033   0.392067722819   0.393011497557   
      0.393810595462   0.394464682745   0.394973554934   0.395337093996   0.395555236864   
      0.409120619691   0.409054374046   0.40885562703   0.408524351769   0.408060514924   
      0.407464094499   0.406735106074   0.405873638693   0.404879901986   0.403754286303   
      0.402497437776   0.40111035017   0.39959447508   0.397951851404   0.396185254015   
      0.394298360016   0.392295929035   0.39018399156   0.387970036686   0.385663187871   
      0.38327435305   0.380816333861   0.37830387861   0.375753665062   0.373184202594   
      0.370615648505   0.368069539887   0.365568449738   0.36313558283   0.360794332284   
      0.358567820949   0.35647845208   0.354547491387   0.352794697857   0.351238014523   
      0.349893323617   0.348774264322   0.347892106239   0.34725566842   0.346871272363   
      0.346742717835   0.346871272363   0.34725566842   0.347892106239   0.348774264322   
      0.349893323617   0.351238014523   0.352794697857   0.354547491387   0.35647845208   
      0.358567820949   0.360794332284   0.36313558283   0.365568449738   0.368069539887   
      0.370615648505   0.373184202594   0.375753665062   0.37830387861   0.380816333861   
      0.38327435305   0.385663187871   0.387970036686   0.39018399156   0.392295929035   
      0.394298360016   0.396185254015   0.397951851404   0.39959447508   0.40111035017   
      0.402497437776   0.403754286303   0.404879901986   0.405873638693   0.406735106074   
      0.407464094499   0.408060514924   0.408524351769   0.40885562703   0.409054374046   
      0.42618083824   0.426123526631   0.425951565784   0.425664880243   0.425263353078   