<?xml version="1.0"?>
<VTKFile type="ImageData" version="0.1" byte_order="LittleEndian">
  <ImageData WholeExtent="0 79 0 19 0 19" Origin="0 0 0" Spacing="1 1 1">
  <Piece Extent="0 79 0 19 0 19">
    <PointData Scalars="density">
       <DataArray type="Float32" Name="bluedensity" NumberOfComponents="1" format="ascii">
      0   0   0   0   0   
      0   0   0   0   0   
      0   0   0   0   0   
      0   0   0   0   0   
      0   0   0   0   0   
      0   0   0   0   0   
      0   0   0   0   0   
      0   0   0   0   0   
      0   0   0   0   0   
      0   0   0   0   0   
      0   0   0   0   0   
      0   0   0   0   0   
      0   0   0   0   0   
      0   0   0   0   0   
      0   0   0   0   0   
      0   0   0   0   0   
      0   0   0   0   0   
      0   0   0   0   0   
      0   0   0   0   0   
      0   0   0   0   0   
      0   0   0   0   0   
      0   0   0   0   0   
      0   0   0   0   0   
      0   0   0   0   0   
      0   0   0   0   0   
      0   0   0   0   0   
      0   0   0   0   0   
      0   0   0   0   0   
      0   0   0   0   0   
      0   0   0   0   0   
      0   0   0   0   0   
      0   0   0   0   0   
      0   0   0   0   0   
      0   0   0   0   0   
      0   0   0   0   0   
      0   0   0   0   0   
      0   0   0   0   0   
      0   0   0   0   0   
      0   0   0   0   0   
      0   0   0   0   0   
      0   0   0   0   0   
      0   0   0   0   0   
      0   0   0   0   0   
      0   0   0   0   0   
      0   0   0   0   0   
      0   0   0   0   0   
      0   0   0   0   0   
      0   0   0   0   0   
      0   0   0   0   0   
      0   0   0   0   0   
      0   0   0   0   0   
      0   0   0   0   0   
      0   0   0   0   0   
      0   0   0   0   0   
      0   0   0   0   0   
      0   0   0   0   0   
      0   0   0   0   0   
      0   0   0   0   0   
      0   0   0   0   0   
      0   0   0   0   0   
      0   0   0   0   0   
      0   0   0   0   0   
      0   0   0   0   0   
      0   0   0   0   0   
      0   0   0   0   0   
      0   0   0   0   0   
      0   0   0   0   0   
      0   0   0   0   0   
      0   0   0   0   0   
      0   0   0   0   0   
      0   0   0   0   0   
      0   0   0   0   0   
      0   0   0   0   0   
      0   0   0   0   0   
      0   0   0   0   0   
      0   0   0   0   0   
      0   0   0   0   0   
      0   0   0   0   0   
      0   0   0   0   0   
      0   0   0   0   0   
      0   0   0   0   0   
      0   0   0   0   0   
      0   0   0   0   0   
      0   0   0   0   0   
      0   0   0   0   0   
      0   0   0   0   0   
      0   0   0   0   0   
      0   0   0   0   0   
      0   0   0   0   0   
      0   0   0   0   0   
      0   0   0   0   0   
      0   0   0   0   0   
      0   0   0   0   0   
      0   0   0   0   0   
      0   0   0   0   0   
      0   0   0   0   0   
      0   0   0   0   0   
      0   0   0   0   0   
      0   0   0   0   0   
      0   0   0   0   0   
      0   0   0   0   0   
      0   0   0   0   0   
      0   0   0   0   0   
      0   0   0   0   0   
      0   0   0   0   0   
      0   0   0   0   0   
      0   0   0   0   0   
      0   0   0   0   0   
      0   0   0   0   0   
      0   0   0   0   0   
      0   0   0   0   0   
      0   0   0   0   0   
      0   0   0   0   0   
      0   0   0   0   0   
      0   0   0   0   0   
      0   0   0   0   0   
      0   0   0   0   0   
      0   0   0   0   0   
      0   0   0   0   0   
      0   0   0   0   0   
      0   0   0   0   0   
      0   0   0   0   0   
      0   0   0   0   0   
      0   0   0   0   0   
      0   0   0   0   0   
      0   0   0   0   0   
      0   0   0   0   0   
      0   0   0   0   0   
      0   0   0   0   0   
      0   0   0   0   0   
      0   0   0   0   0   
      0   0   0   0   0   
      0   0   0   0   0   
      0   0   0   0   0   
      0   0   0   0   0   
      0   0   0   0   0   
      0   0   0   0   0   
      0   0   0   0   0   
      0   0   0   0   0   
      0   0   0   0   0   
      0   0   0   0   0   
      0   0   0   0   0   
      0   0   0   0   0   
      0   0   0   0   0   
      0   0   0   0   0   
      0   0   0   0   0   
      0   0   0   0   0   
      0   0   0   0   0   
      0   0   0   0   0   
      0   0   0   0   0   
      0   0   0   0   0   
      0   0   0   0   0   
      0   0   0   0   0   
      0   0   0   0   0   
      0   0   0   0   0   
      0   0   0   0   0   
      0   0   0   0   0   
      0   0   0   0   0   
      0   0   0   0   0   
      0   0   0   0   0   
      0   0   0   0   0   
      0   0   0   0   0   
      0   0   0   0   0   
      0   0   0   0   0   
      0   0   0   0   0   
      0   0   0   0   0   
      0   0   0   0   0   
      0   0   0   0   0   
      0   0   0   0   0   
      0   0   0   0   0   
      0   0   0   0   0   
      0   0   0   0   0   
      0   0   0   0   0   
      0   0   0   0   0   
      0   0   0   0   0   
      0   0   0   0   0   
      0   0   0   0   0   
      0   0   0   0   0   
      0   0   0   0   0   
      0   0   0   0   0   
      0   0   0   0   0   
      0   0   0   0   0   
      0   0   0   0   0   
      0   0   0   0   0   
      0   0   0   0   0   
      0   0   0   0   0   
      0   0   0   0   0   
      0   0   0   0   0   
      0   0   0   0   0   
      0   0   0   0   0   
      0   0   0   0   0   
      0   0   0   0   0   
      0   0   0   0   0   
      0   0   0   0   0   
      0   0   0   0   0   
      0   0   0   0   0   
      0   0   0   0   0   
      0   0   0   0   0   
      0   0   0   0   0   
      0   0   0   0   0   
      0   0   0   0   0   
      0   0   0   0   0   
      0   0   0   0   0   
      0   0   0   0   0   
      0   0   0   0   0   
      0   0   0   0   0   
      0   0   0   0   0   
      0   0   0   0   0   
      0   0   0   0   0   
      0   0   0   0   0   
      0   0   0   0   0   
      0   0   0   0   0   
      0   0   0   0   0   
      0   0   0   0   0   
      0   0   0   0   0   
      0   0   0   0   0   
      0   0   0   0   0   
      0   0   0   0   0   
      0   0   0   0   0   
      0   0   0   0   0   
      0   0   0   0   0   
      0   0   0   0   0   
      0   0   0   0   0   
      0   0   0   0   0   
      0   0   0   0   0   
      0   0   0   0   0   
      0   0   0   0   0   
      0   0   0   0   0   
      0   0   0   0   0   
      0   0   0   0   0   
      0   0   0   0   0   
      0   0   0   0   0   
      0   0   0   0   0   
      0   0   0   0   0   
      0   0   0   0   0   
      0   0   0   0   0   
      0   0   0   0   0   
      0   0   0   0   0   
      0   0   0   0   0   
      0   0   0   0   0   
      0   0   0   0   0   
      0   0   0   0   0   
      0   0   0   0   0   
      0   0   0   0   0   
      0   0   0   0   0   
      0   0   0   0   0   
      0   0   0   0   0   
      0   0   0   0   0   
      0   0   0   0   0   
      0   0   0   0   0   
      0   0   0   0   0   
      0   0   0   0   0   
      0   0   0   0   0   
      0   0   0   0   0   
      0   0   0   0   0   
      0   0   0   0   0   
      0   0   0   0   0   
      0   0   0   0   0   
      0   0   0   0   0   
      0   0   0   0   0   
      0   0   0   0   0   
      0   0   0   0   0   
      0   0   0   0   0   
      0   0   0   0   0   
      0   0   0   0   0   
      0   0   0   0   0   
      0   0   0   0   0   
      0   0   0   0   0   
      0   0   0   0   0   
      0   0   0   0   0   
      0   0   0   0   0   
      0   0   0   0   0   
      0   0   0   0   0   
      0   0   0   0   0   
      0   0   0   0   0   
      0   0   0   0   0   
      0   0   0   0   0   
      0   0   0   0   0   
      0   0   0   0   0   
      0   0   0   0   0   
      0   0   0   0   0   
      0   0   0   0   0   
      0   0   0   0   0   
      0   0   0   0   0   
      0   0   0   0   0   
      0   0   0   0   0   
      0   0   0   0   0   
      0   0   0   0   0   
      0   0   0   0   0   
      0   0   0   0   0   
      0   0   0   0   0   
      0   0   0   0   0   
      0   0   0   0   0   
      0   0   0   0   0   
      0   0   0   0   0   
      0   0   0   0   0   
      0   0   0   0   0   
      0   0   0   0   0   
      0   0   0   0   0   
      0   0   0   0   0   
      0   0   0   0   0   
      0   0   0   0   0   
      0   0   0   0   0   
      0   0   0   0   0   
      0   0   0   0   0   
      0   0   0   0   0   
      0   0   0   0   0   
      0   0   0   0   0   
      0   0   0   0   0   
      0   0   0   0   0   
      0   0   0   0   0   
      0   0   0   0   0   
      0   0   0   0   0   
      0   0   0   0   0   
      0   0   0   0   0   
      0   0   0   0   0   
      0   0   0   0   0   
      0   0   0   0   0   
      0   0   0   0   0   
      0   0   0   0   0   
      0   0   0   0   0   
      0   0   0   0   0   
      0   0   0   0   0   
      0   0   0   0   0   
      0   0   0   0   0   
      0   0   0   0   0   
      0   0   0   0   0   
      0   0   0   0   0   
      0   0   0   0   0   
      0   0   0   0   0   
      0   0   0   0   0   
      0   0   0   0   0   
      0   0   0   0   0   
      0   0   0   0   0   
      0   0   0   0   0   
      0   0   0   0   0   
      0.580660097199   0.580631087384   0.580544023572   0.580398802979   0.580195255438   
      0.579933145369   0.579612175039   0.579231989697   0.578792185332   0.578292320079   
      0.577731930543   0.577110554616   0.576427762626   0.575683198896   0.574876635931   
      0.574008043397   0.573077673797   0.572086166103   0.571034667595   0.569924972664   
      0.568759675403   0.567542330556   0.56627761488   0.564971478647   0.56363127501   
      0.562265853799   0.560885606249   0.559502448466   0.558129734115   0.556782090837   
      0.555475179784   0.554225383084   0.553049429256   0.551963971213   0.550985134927   
      0.550128058894   0.549406445182   0.548832142052   0.548414776324   0.548161450958   
      0.548076520173   0.548161450958   0.548414776324   0.548832142052   0.549406445182   
      0.550128058894   0.550985134927   0.551963971213   0.553049429256   0.554225383084   
      0.555475179784   0.556782090837   0.558129734115   0.559502448466   0.560885606249   
      0.562265853799   0.56363127501   0.564971478647   0.56627761488   0.567542330556   
      0.568759675403   0.569924972664   0.571034667595   0.572086166103   0.573077673797   
      0.574008043397   0.574876635931   0.575683198896   0.576427762626   0.577110554616   
      0.577731930543   0.578292320079   0.578792185332   0.579231989697   0.579612175039   
      0.579933145369   0.580195255438   0.580398802979   0.580544023572   0.580631087384   
      0.472176751741   0.472136933664   0.472017419803   0.471818031933   0.471538475319   
      0.471178342603   0.470737120081   0.470214197278   0.469608881051   0.468920415778   
      0.468148011598   0.46729088305   0.466348300773   0.465319659185   0.464204563108   
      0.463002936034   0.46171515208   0.460342192523   0.458885825968   0.457348808868   
      0.45573510012   0.454050080191   0.45230076193   0.450495977335   0.448646522661   
      0.446765243778   0.444867045102   0.442968808806   0.441089216242   0.439248470139   
      0.437467923373   0.435769627138   0.434175817247   0.432708361443   0.431388192585   
      0.430234752423   0.429265468655   0.428495284692   0.427936257551   0.427597235338   
      0.42748362216   0.427597235338   0.427936257551   0.428495284692   0.429265468655   
      0.430234752423   0.431388192585   0.432708361443   0.434175817247   0.435769627138   
      0.437467923373   0.439248470139   0.441089216242   0.442968808806   0.444867045102   
      0.446765243778   0.448646522661   0.450495977335   0.45230076193   0.454050080191   
      0.45573510012   0.457348808868   0.458885825968   0.460342192523   0.46171515208   
      0.463002936034   0.464204563108   0.465319659185   0.466348300773   0.46729088305   
      0.468148011598   0.468920415778   0.469608881051   0.470214197278   0.470737120081   
      0.471178342603   0.471538475319   0.471818031933   0.472017419803   0.472136933664   
      0.45086807258   0.450816160156   0.450660349952   0.450400424434   0.450036025421   
      0.449566661251   0.448991718014   0.448310476134   0.447522133989   0.446625840719   
      0.445620740826   0.444506033621   0.443281050837   0.441945355909   0.440498868185   
      0.438942014666   0.437275910639   0.435502568529   0.433625131585   0.431648125475   
      0.429577716915   0.427421964348   0.425191042042   0.422897416478   0.420555953254   
      0.418183934453   0.415800970795   0.413428799746   0.411090969341   0.408812416854   
      0.406618960161   0.404536726578   0.402591548062   0.400808352531   0.399210578819   
      0.397819638074   0.396654438272   0.395730981959   0.395062041533   0.394656911911   
      0.394521237787   0.394656911911   0.395062041533   0.395730981959   0.396654438272   
      0.397819638074   0.399210578819   0.400808352531   0.402591548062   0.404536726578   
      0.406618960161   0.408812416854   0.411090969341   0.413428799746   0.415800970795   
      0.418183934453   0.420555953254   0.422897416478   0.425191042042   0.427421964348   
      0.429577716915   0.431648125475   0.433625131585   0.435502568529   0.437275910639   
      0.438942014666   0.440498868185   0.441945355909   0.443281050837   0.444506033621   
      0.445620740826   0.446625840719   0.447522133989   0.448310476134   0.448991718014   
      0.449566661251   0.450036025421   0.450400424434   0.450660349952   0.450816160156   
      0.429920350975   0.429855721378   0.429661758481   0.429338242038   0.428884812122   
      0.428300980644   0.427586149113   0.42673963431   0.425760704087   0.424648626036   
      0.423402732281   0.422022504042   0.420507679817   0.418858390894   0.417075327256   
      0.415159935633   0.41311464931   0.410943146204   0.408650627793   0.406244106785   
      0.403732686552   0.401127810888   0.398443459523   0.395696263921   0.392905519978   
      0.390093079785   0.387283113302   0.384501741886   0.381776557527   0.379136052605   
      0.376608993199   0.374223773069   0.37200778492   0.369986840646   0.368184664085   
      0.366622469918   0.365318632412   0.364288439123   0.363543918527   0.363093727315   
      0.362943082696   0.363093727315   0.363543918527   0.364288439123   0.365318632412   
      0.366622469918   0.368184664085   0.369986840646   0.37200778492   0.374223773069   
      0.376608993199   0.379136052605   0.381776557527   0.384501741886   0.387283113302   
      0.390093079785   0.392905519978   0.395696263921   0.398443459523   0.401127810888   
      0.403732686552   0.406244106785   0.408650627793   0.410943146204   0.41311464931   
      0.415159935633   0.417075327256   0.418858390894   0.420507679817   0.422022504042   
      0.423402732281   0.424648626036   0.425760704087   0.42673963431   0.427586149113   
      0.428300980644   0.428884812122   0.429338242038   0.429661758481   0.429855721378   
      0.413530459065   0.413455517624   0.413230630881   0.41285561451   0.412330171328   
      0.411653907348   0.410826356278   0.409847014533   0.408715389422   0.407431063791   
      0.405993780829   0.404403553116   0.402660799893   0.400766516046   0.398722475048   
      0.396531465961   0.394197561436   0.391726409426   0.389125536187   0.386404642575   
      0.383575870388   0.380654011494   0.377656631002   0.374604077667   0.37151936088   
      0.36842788372   0.365357034923   0.362335657189   0.359393422864   0.356560158169   
      0.353865161915   0.351336563363   0.349000756716   0.346881938321   0.345001759088   
      0.343379091093   0.342029895952   0.340967174369   0.340200971972   0.339738415931   
      0.339583759424   0.339738415931   0.340200971972   0.340967174369   0.342029895952   
      0.343379091093   0.345001759088   0.346881938321   0.349000756716   0.351336563363   
      0.353865161915   0.356560158169   0.359393422864   0.362335657189   0.365357034923   
      0.36842788372   0.37151936088   0.374604077667   0.377656631002   0.380654011494   
      0.383575870388   0.386404642575   0.389125536187   0.391726409426   0.394197561436   
      0.396531465961   0.398722475048   0.400766516046   0.402660799893   0.404403553116   
      0.405993780829   0.407431063791   0.408715389422   0.409847014533   0.410826356278   
      0.411653907348   0.412330171328   0.41285561451   0.413230630881   0.413455517624   
      0.400534376949   0.400451876881   0.400204330896   0.399791605363   0.399213490317   
      0.39846971977   0.397560002552   0.396484066082   0.395241716143   0.39383291633   
      0.392257891256   0.390517257755   0.38861218797   0.386544607214   0.384317427586   
      0.381934815297   0.379402485481   0.376728012926   0.373921141128   0.370994065963   
      0.367961665206   0.364841642418   0.361654554636   0.358423698926   0.355174843404   
      0.351935803034   0.348735877567   0.345605185504   0.342573941099   0.339671728367   
      0.336926825583   0.334365625901   0.332012186043   0.329887918316   0.328011424253   
      0.326398453634   0.325061962175   0.324012235381   0.323257044828   0.322801805507   
      0.322649707946   0.322801805507   0.323257044828   0.324012235381   0.325061962175   
      0.326398453634   0.328011424253   0.329887918316   0.332012186043   0.334365625901   
      0.336926825583   0.339671728367   0.342573941099   0.345605185504   0.348735877567   
      0.351935803034   0.355174843404   0.358423698926   0.361654554636   0.364841642418   
      0.367961665206   0.370994065963   0.373921141128   0.376728012926   0.379402485481   
      0.381934815297   0.384317427586   0.386544607214   0.38861218797   0.390517257755   
      0.392257891256   0.39383291633   0.395241716143   0.396484066082   0.397560002552   
      0.39846971977   0.399213490317   0.399791605363   0.400204330896   0.400451876881   
      0.391035553916   0.390948047356   0.390685497347   0.390247817335   0.389634878205   
      0.388846532355   0.387882650097   0.386743171086   0.385428174144   0.383937969463   
      0.382273217455   0.380435078521   0.378425397304   0.376246923538   0.373903569027   
      0.371400696459   0.368745430685   0.365946976908   0.363016923559   0.359969501434   
      0.356821766296   0.353593671074   0.350307997481   0.346990126087   0.343667638356   
      0.340369762452   0.337126693893   0.333968838951   0.330926039724   0.328026842535   
      0.325297865295   0.322763305673   0.320444613344   0.318360329555   0.316526079191   
      0.314954686774   0.313656379663   0.312639038883   0.311908459824   0.3114685899   
      0.311321716983   0.3114685899   0.311908459824   0.312639038883   0.313656379663   
      0.314954686774   0.316526079191   0.318360329555   0.320444613344   0.322763305673   
      0.325297865295   0.328026842535   0.330926039724   0.333968838951   0.337126693893   
      0.340369762452   0.343667638356   0.346990126087   0.350307997481   0.353593671074   
      0.356821766296   0.359969501434   0.363016923559   0.365946976908   0.368745430685   
      0.371400696459   0.373903569027   0.376246923538   0.378425397304   0.380435078521   
      0.382273217455   0.383937969463   0.385428174144   0.386743171086   0.387882650097   
      0.388846532355   0.389634878205   0.390247817335   0.390685497347   0.390948047356   
      0.384880683046   0.384790193301   0.384518704888   0.384066165243   0.383432503762   
      0.382617658758   0.381621618144   0.380444476687   0.379086513457   0.377548293576   
      0.375830798673   0.373935590201   0.371865008837   0.369622411346   0.36721244315   
      0.36464134048   0.36191725019   0.35905054864   0.356054134013   0.352943660442   
      0.349737678684   0.346457648609   0.343127794755   0.33977478821   0.336427255386   
      0.333115134771   0.32986892299   0.326718867701   0.32369417341   0.320822285346   
      0.318128306057   0.315634581559   0.313360472236   0.311322302159   0.309533462559   
      0.308004632915   0.30674407711   0.30575797185   0.305050728441   0.304625275547   
      0.30448327815   0.304625275547   0.305050728441   0.30575797185   0.30674407711   
      0.308004632915   0.309533462559   0.311322302159   0.313360472236   0.315634581559   
      0.318128306057   0.320822285346   0.32369417341   0.326718867701   0.32986892299   
      0.333115134771   0.336427255386   0.33977478821   0.343127794755   0.346457648609   
      0.349737678684   0.352943660442   0.356054134013   0.35905054864   0.36191725019   
      0.36464134048   0.36721244315   0.369622411346   0.371865008837   0.373935590201   
      0.375830798673   0.377548293576   0.379086513457   0.380444476687   0.381621618144   
      0.382617658758   0.383432503762   0.384066165243   0.384518704888   0.384790193301   
      0.381871826188   0.381779954354   0.381504325415   0.381044904333   0.380401650738   
      0.379574547484   0.378563643672   0.377369115104   0.37599134586   0.374431035211   
      0.372689334273   0.370768016494   0.368669684965   0.36639801746   0.363958046753   
      0.36135646899   0.35860196684   0.355705527152   0.352680725743   0.349543946077   
      0.34631449549   0.343014584078   0.339669138658   0.336305437695   0.332952571872   
      0.329640756471   0.326400542277   0.323261987268   0.320253858383   0.317402929539   
      0.314733429299   0.312266671692   0.310020880696   0.308011196916   0.306249837392   
      0.30474636818   0.303508044714   0.302540175949   0.301846473379   0.301429353272   
      0.301290168414   0.301429353272   0.301846473379   0.302540175949   0.303508044714   
      0.30474636818   0.306249837392   0.308011196916   0.310020880696   0.312266671692   
      0.314733429299   0.317402929539   0.320253858383   0.323261987268   0.326400542277   
      0.329640756471   0.332952571872   0.336305437695   0.339669138658   0.343014584078   
      0.34631449549   0.349543946077   0.352680725743   0.355705527152   0.35860196684   
      0.36135646899   0.363958046753   0.36639801746   0.368669684965   0.370768016494   
      0.372689334273   0.374431035211   0.37599134586   0.377369115104   0.378563643672   
      0.379574547484   0.380401650738   0.381044904333   0.381504325415   0.381779954354   
      0.381871826188   0.381779954354   0.381504325415   0.381044904333   0.380401650738   
      0.379574547484   0.378563643672   0.377369115104   0.37599134586   0.374431035211   
      0.372689334273   0.370768016494   0.368669684965   0.36639801746   0.363958046753   
      0.36135646899   0.35860196684   0.355705527152   0.352680725743   0.349543946077   
      0.34631449549   0.343014584078   0.339669138658   0.336305437695   0.332952571872   
      0.329640756471   0.326400542277   0.323261987268   0.320253858383   0.317402929539   
      0.314733429299   0.312266671692   0.310020880696   0.308011196916   0.306249837392   
      0.30474636818   0.303508044714   0.302540175949   0.301846473379   0.301429353272   
      0.301290168414   0.301429353272   0.301846473379   0.302540175949   0.303508044714   
      0.30474636818   0.306249837392   0.308011196916   0.310020880696   0.312266671692   
      0.314733429299   0.317402929539   0.320253858383   0.323261987268   0.326400542277   
      0.329640756471   0.332952571872   0.336305437695   0.339669138658   0.343014584078   
      0.34631449549   0.349543946077   0.352680725743   0.355705527152   0.35860196684   
      0.36135646899   0.363958046753   0.36639801746   0.368669684965   0.370768016494   
      0.372689334273   0.374431035211   0.37599134586   0.377369115104   0.378563643672   
      0.379574547484   0.380401650738   0.381044904333   0.381504325415   0.381779954354   
      0.384880683046   0.384790193301   0.384518704888   0.384066165243   0.383432503762   
      0.382617658758   0.381621618144   0.380444476687   0.379086513457   0.377548293576   
      0.375830798673   0.373935590201   0.371865008837   0.369622411346   0.36721244315   
      0.36464134048   0.36191725019   0.35905054864   0.356054134013   0.352943660442   
      0.349737678684   0.346457648609   0.343127794755   0.33977478821   0.336427255386   
      0.333115134771   0.32986892299   0.326718867701   0.32369417341   0.320822285346   
      0.318128306057   0.315634581559   0.313360472236   0.311322302159   0.309533462559   
      0.308004632915   0.30674407711   0.30575797185   0.305050728441   0.304625275547   
      0.30448327815   0.304625275547   0.305050728441   0.30575797185   0.30674407711   
      0.308004632915   0.309533462559   0.311322302159   0.313360472236   0.315634581559   
      0.318128306057   0.320822285346   0.32369417341   0.326718867701   0.32986892299   
      0.333115134771   0.336427255386   0.33977478821   0.343127794755   0.346457648609   
      0.349737678684   0.352943660442   0.356054134013   0.35905054864   0.36191725019   
      0.36464134048   0.36721244315   0.369622411346   0.371865008837   0.373935590201   
      0.375830798673   0.377548293576   0.379086513457   0.380444476687   0.381621618144   
      0.382617658758   0.383432503762   0.384066165243   0.384518704888   0.384790193301   
      0.391035553916   0.390948047356   0.390685497347   0.390247817335   0.389634878205   
      0.388846532355   0.387882650097   0.386743171086   0.385428174144   0.383937969463   
      0.382273217455   0.380435078521   0.378425397304   0.376246923538   0.373903569027   
      0.371400696459   0.368745430685   0.365946976908   0.363016923559   0.359969501434   
      0.356821766296   0.353593671074   0.350307997481   0.346990126087   0.343667638356   
      0.340369762452   0.337126693893   0.333968838951   0.330926039724   0.328026842535   
      0.325297865295   0.322763305673   0.320444613344   0.318360329555   0.316526079191   
      0.314954686774   0.313656379663   0.312639038883   0.311908459824   0.3114685899   
      0.311321716983   0.3114685899   0.311908459824   0.312639038883   0.313656379663   
      0.314954686774   0.316526079191   0.318360329555   0.320444613344   0.322763305673   
      0.325297865295   0.328026842535   0.330926039724   0.333968838951   0.337126693893   
      0.340369762452   0.343667638356   0.346990126087   0.350307997481   0.353593671074   
      0.356821766296   0.359969501434   0.363016923559   0.365946976908   0.368745430685   
      0.371400696459   0.373903569027   0.376246923538   0.378425397304   0.380435078521   
      0.382273217455   0.383937969463   0.385428174144   0.386743171086   0.387882650097   
      0.388846532355   0.389634878205   0.390247817335   0.390685497347   0.390948047356   
      0.400534376949   0.400451876881   0.400204330896   0.399791605363   0.399213490317   
      0.39846971977   0.397560002552   0.396484066082   0.395241716143   0.39383291633   
      0.392257891256   0.390517257755   0.38861218797   0.386544607214   0.384317427586   
      0.381934815297   0.379402485481   0.376728012926   0.373921141128   0.370994065963   
      0.367961665206   0.364841642418   0.361654554636   0.358423698926   0.355174843404   
      0.351935803034   0.348735877567   0.345605185504   0.342573941099   0.339671728367   
      0.336926825583   0.334365625901   0.332012186043   0.329887918316   0.328011424253   
      0.326398453634   0.325061962175   0.324012235381   0.323257044828   0.322801805507   
      0.322649707946   0.322801805507   0.323257044828   0.324012235381   0.325061962175   
      0.326398453634   0.328011424253   0.329887918316   0.332012186043   0.334365625901   
      0.336926825583   0.339671728367   0.342573941099   0.345605185504   0.348735877567   
      0.351935803034   0.355174843404   0.358423698926   0.361654554636   0.364841642418   
      0.367961665206   0.370994065963   0.373921141128   0.376728012926   0.379402485481   
      0.381934815297   0.384317427586   0.386544607214   0.38861218797   0.390517257755   
      0.392257891256   0.39383291633   0.395241716143   0.396484066082   0.397560002552   
      0.39846971977   0.399213490317   0.399791605363   0.400204330896   0.400451876881   
      0.413530459065   0.413455517624   0.413230630881   0.41285561451   0.412330171328   
      0.411653907348   0.410826356278   0.409847014533   0.408715389422   0.407431063791   
      0.405993780829   0.404403553116   0.402660799893   0.400766516046   0.398722475048   
      0.396531465961   0.394197561436   0.391726409426   0.389125536187   0.386404642575   
      0.383575870388   0.380654011494   0.377656631002   0.374604077667   0.37151936088   
      0.36842788372   0.365357034923   0.362335657189   0.359393422864   0.356560158169   
      0.353865161915   0.351336563363   0.349000756716   0.346881938321   0.345001759088   
      0.343379091093   0.342029895952   0.340967174369   0.340200971972   0.339738415931   
      0.339583759424   0.339738415931   0.340200971972   0.340967174369   0.342029895952   
      0.343379091093   0.345001759088   0.346881938321   0.349000756716   0.351336563363   
      0.353865161915   0.356560158169   0.359393422864   0.362335657189   0.365357034923   
      0.36842788372   0.37151936088   0.374604077667   0.377656631002   0.380654011494   
      0.383575870388   0.386404642575   0.389125536187   0.391726409426   0.394197561436   
      0.396531465961   0.398722475048   0.400766516046   0.402660799893   0.404403553116   
      0.405993780829   0.407431063791   0.408715389422   0.409847014533   0.410826356278   
      0.411653907348   0.412330171328   0.41285561451   0.413230630881   0.413455517624   
      0.429920350975   0.429855721378   0.429661758481   0.429338242038   0.428884812122   