<?xml version="1.0"?>
<VTKFile type="ImageData" version="0.1" byte_order="LittleEndian">
  <ImageData WholeExtent="0 79 0 19 0 19" Origin="0 0 0" Spacing="1 1 1">
  <Piece Extent="0 79 0 19 0 19">
    <PointData Scalars="density">
       <DataArray type="Float32" Name="bluedensity" NumberOfComponents="1" format="ascii">
      0   0   0   0   0   
      0   0   0   0   0   
      0   0   0   0   0   
      0   0   0   0   0   
      0   0   0   0   0   
      0   0   0   0   0   
      0   0   0   0   0   
      0   0   0   0   0   
      0   0   0   0   0   
      0   0   0   0   0   
      0   0   0   0   0   
      0   0   0   0   0   
      0   0   0   0   0   
      0   0   0   0   0   
      0   0   0   0   0   
      0   0   0   0   0   
      0   0   0   0   0   
      0   0   0   0   0   
      0   0   0   0   0   
      0   0   0   0   0   
      0   0   0   0   0   
      0   0   0   0   0   
      0   0   0   0   0   
      0   0   0   0   0   
      0   0   0   0   0   
      0   0   0   0   0   
      0   0   0   0   0   
      0   0   0   0   0   
      0   0   0   0   0   
      0   0   0   0   0   
      0   0   0   0   0   
      0   0   0   0   0   
      0   0   0   0   0   
      0   0   0   0   0   
      0   0   0   0   0   
      0   0   0   0   0   
      0   0   0   0   0   
      0   0   0   0   0   
      0   0   0   0   0   
      0   0   0   0   0   
      0   0   0   0   0   
      0   0   0   0   0   
      0   0   0   0   0   
      0   0   0   0   0   
      0   0   0   0   0   
      0   0   0   0   0   
      0   0   0   0   0   
      0   0   0   0   0   
      0   0   0   0   0   
      0   0   0   0   0   
      0   0   0   0   0   
      0   0   0   0   0   
      0   0   0   0   0   
      0   0   0   0   0   
      0   0   0   0   0   
      0   0   0   0   0   
      0   0   0   0   0   
      0   0   0   0   0   
      0   0   0   0   0   
      0   0   0   0   0   
      0   0   0   0   0   
      0   0   0   0   0   
      0   0   0   0   0   
      0   0   0   0   0   
      0   0   0   0   0   
      0   0   0   0   0   
      0   0   0   0   0   
      0   0   0   0   0   
      0   0   0   0   0   
      0   0   0   0   0   
      0   0   0   0   0   
      0   0   0   0   0   
      0   0   0   0   0   
      0   0   0   0   0   
      0   0   0   0   0   
      0   0   0   0   0   
      0   0   0   0   0   
      0   0   0   0   0   
      0   0   0   0   0   
      0   0   0   0   0   
      0   0   0   0   0   
      0   0   0   0   0   
      0   0   0   0   0   
      0   0   0   0   0   
      0   0   0   0   0   
      0   0   0   0   0   
      0   0   0   0   0   
      0   0   0   0   0   
      0   0   0   0   0   
      0   0   0   0   0   
      0   0   0   0   0   
      0   0   0   0   0   
      0   0   0   0   0   
      0   0   0   0   0   
      0   0   0   0   0   
      0   0   0   0   0   
      0   0   0   0   0   
      0   0   0   0   0   
      0   0   0   0   0   
      0   0   0   0   0   
      0   0   0   0   0   
      0   0   0   0   0   
      0   0   0   0   0   
      0   0   0   0   0   
      0   0   0   0   0   
      0   0   0   0   0   
      0   0   0   0   0   
      0   0   0   0   0   
      0   0   0   0   0   
      0   0   0   0   0   
      0   0   0   0   0   
      0   0   0   0   0   
      0   0   0   0   0   
      0   0   0   0   0   
      0   0   0   0   0   
      0   0   0   0   0   
      0   0   0   0   0   
      0   0   0   0   0   
      0   0   0   0   0   
      0   0   0   0   0   
      0   0   0   0   0   
      0   0   0   0   0   
      0   0   0   0   0   
      0   0   0   0   0   
      0   0   0   0   0   
      0   0   0   0   0   
      0   0   0   0   0   
      0   0   0   0   0   
      0   0   0   0   0   
      0   0   0   0   0   
      0   0   0   0   0   
      0   0   0   0   0   
      0   0   0   0   0   
      0   0   0   0   0   
      0   0   0   0   0   
      0   0   0   0   0   
      0   0   0   0   0   
      0   0   0   0   0   
      0   0   0   0   0   
      0   0   0   0   0   
      0   0   0   0   0   
      0   0   0   0   0   
      0   0   0   0   0   
      0   0   0   0   0   
      0   0   0   0   0   
      0   0   0   0   0   
      0   0   0   0   0   
      0   0   0   0   0   
      0   0   0   0   0   
      0   0   0   0   0   
      0   0   0   0   0   
      0   0   0   0   0   
      0   0   0   0   0   
      0   0   0   0   0   
      0   0   0   0   0   
      0   0   0   0   0   
      0   0   0   0   0   
      0   0   0   0   0   
      0   0   0   0   0   
      0   0   0   0   0   
      0   0   0   0   0   
      0   0   0   0   0   
      0   0   0   0   0   
      0   0   0   0   0   
      0   0   0   0   0   
      0   0   0   0   0   
      0   0   0   0   0   
      0   0   0   0   0   
      0   0   0   0   0   
      0   0   0   0   0   
      0   0   0   0   0   
      0   0   0   0   0   
      0   0   0   0   0   
      0   0   0   0   0   
      0   0   0   0   0   
      0   0   0   0   0   
      0   0   0   0   0   
      0   0   0   0   0   
      0   0   0   0   0   
      0   0   0   0   0   
      0   0   0   0   0   
      0   0   0   0   0   
      0   0   0   0   0   
      0   0   0   0   0   
      0   0   0   0   0   
      0   0   0   0   0   
      0   0   0   0   0   
      0   0   0   0   0   
      0   0   0   0   0   
      0   0   0   0   0   
      0   0   0   0   0   
      0   0   0   0   0   
      0   0   0   0   0   
      0   0   0   0   0   
      0   0   0   0   0   
      0   0   0   0   0   
      0   0   0   0   0   
      0   0   0   0   0   
      0   0   0   0   0   
      0   0   0   0   0   
      0   0   0   0   0   
      0   0   0   0   0   
      0   0   0   0   0   
      0   0   0   0   0   
      0   0   0   0   0   
      0   0   0   0   0   
      0   0   0   0   0   
      0   0   0   0   0   
      0   0   0   0   0   
      0   0   0   0   0   
      0   0   0   0   0   
      0   0   0   0   0   
      0   0   0   0   0   
      0   0   0   0   0   
      0   0   0   0   0   
      0   0   0   0   0   
      0   0   0   0   0   
      0   0   0   0   0   
      0   0   0   0   0   
      0   0   0   0   0   
      0   0   0   0   0   
      0   0   0   0   0   
      0   0   0   0   0   
      0   0   0   0   0   
      0   0   0   0   0   
      0   0   0   0   0   
      0   0   0   0   0   
      0   0   0   0   0   
      0   0   0   0   0   
      0   0   0   0   0   
      0   0   0   0   0   
      0   0   0   0   0   
      0   0   0   0   0   
      0   0   0   0   0   
      0   0   0   0   0   
      0   0   0   0   0   
      0   0   0   0   0   
      0   0   0   0   0   
      0   0   0   0   0   
      0   0   0   0   0   
      0   0   0   0   0   
      0   0   0   0   0   
      0   0   0   0   0   
      0   0   0   0   0   
      0   0   0   0   0   
      0   0   0   0   0   
      0   0   0   0   0   
      0   0   0   0   0   
      0   0   0   0   0   
      0   0   0   0   0   
      0   0   0   0   0   
      0   0   0   0   0   
      0   0   0   0   0   
      0   0   0   0   0   
      0   0   0   0   0   
      0   0   0   0   0   
      0   0   0   0   0   
      0   0   0   0   0   
      0   0   0   0   0   
      0   0   0   0   0   
      0   0   0   0   0   
      0   0   0   0   0   
      0   0   0   0   0   
      0   0   0   0   0   
      0   0   0   0   0   
      0   0   0   0   0   
      0   0   0   0   0   
      0   0   0   0   0   
      0   0   0   0   0   
      0   0   0   0   0   
      0   0   0   0   0   
      0   0   0   0   0   
      0   0   0   0   0   
      0   0   0   0   0   
      0   0   0   0   0   
      0   0   0   0   0   
      0   0   0   0   0   
      0   0   0   0   0   
      0   0   0   0   0   
      0   0   0   0   0   
      0   0   0   0   0   
      0   0   0   0   0   
      0   0   0   0   0   
      0   0   0   0   0   
      0   0   0   0   0   
      0   0   0   0   0   
      0   0   0   0   0   
      0   0   0   0   0   
      0   0   0   0   0   
      0   0   0   0   0   
      0   0   0   0   0   
      0   0   0   0   0   
      0   0   0   0   0   
      0   0   0   0   0   
      0   0   0   0   0   
      0   0   0   0   0   
      0   0   0   0   0   
      0   0   0   0   0   
      0   0   0   0   0   
      0   0   0   0   0   
      0   0   0   0   0   
      0   0   0   0   0   
      0   0   0   0   0   
      0   0   0   0   0   
      0   0   0   0   0   
      0   0   0   0   0   
      0   0   0   0   0   
      0   0   0   0   0   
      0   0   0   0   0   
      0   0   0   0   0   
      0   0   0   0   0   
      0   0   0   0   0   
      0   0   0   0   0   
      0   0   0   0   0   
      0   0   0   0   0   
      0   0   0   0   0   
      0   0   0   0   0   
      0   0   0   0   0   
      0   0   0   0   0   
      0   0   0   0   0   
      0   0   0   0   0   
      0   0   0   0   0   
      0   0   0   0   0   
      0   0   0   0   0   
      0   0   0   0   0   
      0   0   0   0   0   
      0   0   0   0   0   
      0   0   0   0   0   
      0   0   0   0   0   
      0   0   0   0   0   
      0   0   0   0   0   
      0   0   0   0   0   
      0   0   0   0   0   
      0   0   0   0   0   
      0   0   0   0   0   
      0   0   0   0   0   
      0.571889374263   0.571881285013   0.571857049321   0.571816763502   0.571760588545   
      0.571688750784   0.571601542819   0.571499324636   0.571382524899   0.571251642354   
      0.571107247285   0.570949982947   0.570780566896   0.570599792113   0.570408527815   
      0.57020771985   0.569998390533   0.569781637805   0.569558633583   0.569330621161   
      0.569098911553   0.568864878646   0.568629953078   0.568395614762   0.568163384018   
      0.567934811285   0.567711465466   0.567494920959   0.567286743501   0.567088475003   
      0.566901617571   0.566727616991   0.566567845964   0.566423587429   0.566296018315   
      0.5661861941   0.566095034528   0.566023310833   0.565971634797   0.565940449924   
      0.565930024957   0.565940449924   0.565971634797   0.566023310833   0.566095034528   
      0.5661861941   0.566296018315   0.566423587429   0.566567845964   0.566727616991   
      0.566901617571   0.567088475003   0.567286743501   0.567494920959   0.567711465466   
      0.567934811285   0.568163384018   0.568395614762   0.568629953078   0.568864878646   
      0.569098911553   0.569330621161   0.569558633583   0.569781637805   0.569998390533   
      0.57020771985   0.570408527815   0.570599792113   0.570780566896   0.570949982947   
      0.571107247285   0.571251642354   0.571382524899   0.571499324636   0.571601542819   
      0.571688750784   0.571760588545   0.571816763502   0.571857049321   0.571881285013   
      0.459474023858   0.45946279906   0.459429169099   0.459373267473   0.459295317354   
      0.459195632567   0.45907461893   0.458932775877   0.458770698334   0.45858907875   
      0.458388709193   0.458170483412   0.457935398733   0.457684557654   0.457419168974   
      0.457140548315   0.45685011783   0.456549404939   0.456240039897   0.455923752024   
      0.455602364417   0.455277787001   0.454952007796   0.454627082301   0.454305120954   
      0.453988274659   0.453678718448   0.453378633381   0.45309018687   0.452815511672   
      0.452556683845   0.452315700036   0.452094454511   0.45189471637   0.451718107412   
      0.451566081163   0.451439903507   0.451340635415   0.451269118168   0.451225961455   
      0.451211534643   0.451225961455   0.451269118168   0.451340635415   0.451439903507   
      0.451566081163   0.451718107412   0.45189471637   0.452094454511   0.452315700036   
      0.452556683845   0.452815511672   0.45309018687   0.453378633381   0.453678718448   
      0.453988274659   0.454305120954   0.454627082301   0.454952007796   0.455277787001   
      0.455602364417   0.455923752024   0.456240039897   0.456549404939   0.45685011783   
      0.457140548315   0.457419168974   0.457684557654   0.457935398733   0.458170483412   
      0.458388709193   0.45858907875   0.458770698334   0.458932775877   0.45907461893   
      0.459195632567   0.459295317354   0.459373267473   0.459429169099   0.45946279906   
      0.433965455366   0.433950973746   0.433907587605   0.433835473346   0.433734925783   
      0.433606359305   0.433450309468   0.433267434911   0.433058519539   0.432824474858   
      0.432566342344   0.432285295705   0.431982642857   0.431659827463   0.431318429814   
      0.430960166847   0.430586891094   0.430200588324   0.429803373663   0.429397485982   
      0.428985280356   0.428569218436   0.428151856585   0.42773583172   0.427323844807   
      0.426918642047   0.426522993866   0.426139671858   0.425771423946   0.42542094807   
      0.425090864794   0.424783689267   0.424501803052   0.424247426336   0.424022591099   
      0.423829115786   0.42366858204   0.423542314011   0.423451360725   0.423396481907   
      0.423378137614   0.423396481907   0.423451360725   0.423542314011   0.42366858204   
      0.423829115786   0.424022591099   0.424247426336   0.424501803052   0.424783689267   
      0.425090864794   0.42542094807   0.425771423946   0.426139671858   0.426522993866   
      0.426918642047   0.427323844807   0.42773583172   0.428151856585   0.428569218436   
      0.428985280356   0.429397485982   0.429803373663   0.430200588324   0.430586891094   
      0.430960166847   0.431318429814   0.431659827463   0.431982642857   0.432285295705   
      0.432566342344   0.432824474858   0.433058519539   0.433267434911   0.433450309468   
      0.433606359305   0.433734925783   0.433835473346   0.433907587605   0.433950973746   
      0.408704969437   0.408687289779   0.408634324917   0.408546297443   0.4084235792   
      0.408266692516   0.408076311861   0.407853265835   0.407598539378   0.407313276085   
      0.406998780459   0.406656519941   0.406288126504   0.405895397603   0.405480296251   
      0.405044949966   0.404591648348   0.404122839024   0.403641121731   0.403149240303   
      0.402650072375   0.402146616622   0.401641977455   0.401139347081   0.400641984972   
      0.400153194797   0.399676299001   0.399214611246   0.398771407057   0.398349893038   
      0.397953175127   0.397584226403   0.397245854989   0.396940672654   0.396671064681   
      0.396439161623   0.396246813492   0.396095566919   0.395986645773   0.395920935631   
      0.395898972443   0.395920935631   0.395986645773   0.396095566919   0.396246813492   
      0.396439161623   0.396671064681   0.396940672654   0.397245854989   0.397584226403   
      0.397953175127   0.398349893038   0.398771407057   0.399214611246   0.399676299001   
      0.400153194797   0.400641984972   0.401139347081   0.401641977455   0.402146616622   
      0.402650072375   0.403149240303   0.403641121731   0.404122839024   0.404591648348   
      0.405044949966   0.405480296251   0.405895397603   0.406288126504   0.406656519941   
      0.406998780459   0.407313276085   0.407598539378   0.407853265835   0.408076311861   
      0.408266692516   0.4084235792   0.408546297443   0.408634324917   0.408687289779   
      0.388910707708   0.388890664778   0.388830622988   0.388730843591   0.388591762808   
      0.38841399298   0.388198324093   0.387945725564   0.387657348181   0.387334526031   
      0.386978778267   0.386591810476   0.386175515466   0.385731973206   0.385263449666   
      0.384772394317   0.384261435991   0.383733376885   0.38319118443   0.382637980839   
      0.382077030147   0.381511722603   0.380945556366   0.380382116471   0.379825051146   
      0.379278045629   0.378744793686   0.378228967149   0.377734183841   0.377263974328   
      0.376821747984   0.376410758923   0.376034072349   0.375694531918   0.375394728677   
      0.375136972147   0.374923264077   0.374755275359   0.37463432652   0.374561372162   
      0.374536989636   0.374561372162   0.37463432652   0.374755275359   0.374923264077   
      0.375136972147   0.375394728677   0.375694531918   0.376034072349   0.376410758923   
      0.376821747984   0.377263974328   0.377734183841   0.378228967149   0.378744793686   
      0.379278045629   0.379825051146   0.380382116471   0.380945556366   0.381511722603   
      0.382077030147   0.382637980839   0.38319118443   0.383733376885   0.384261435991   
      0.384772394317   0.385263449666   0.385731973206   0.386175515466   0.386591810476   
      0.386978778267   0.387334526031   0.387657348181   0.387945725564   0.388198324093   
      0.38841399298   0.388591762808   0.388730843591   0.388830622988   0.388890664778   
      0.373483814435   0.373462203417   0.373397467161   0.373289896284   0.37313997584   
      0.372948386311   0.372716004889   0.372443906934   0.372133367485   0.371785862654   
      0.371403070705   0.370986872615   0.370539351879   0.370062793293   0.369559680468   
      0.369032691803   0.368484694642   0.367918737395   0.367338039365   0.366745978117   
      0.366146074237   0.365541973388   0.364937425645   0.364336262157   0.363742369254   
      0.363159660206   0.362592044906   0.362043397831   0.361517524694   0.361018128252   
      0.36054877378   0.360112854746   0.359713559236   0.359353837668   0.359036372335   
      0.358763549257   0.358537432819   0.358359743589   0.358231839683   0.358154701957   
      0.358128923266   0.358154701957   0.358231839683   0.358359743589   0.358537432819   
      0.358763549257   0.359036372335   0.359353837668   0.359713559236   0.360112854746   
      0.36054877378   0.361018128252   0.361517524694   0.362043397831   0.362592044906   
      0.363159660206   0.363742369254   0.364336262157   0.364937425645   0.365541973388   
      0.366146074237   0.366745978117   0.367338039365   0.367918737395   0.368484694642   
      0.369032691803   0.369559680468   0.370062793293   0.370539351879   0.370986872615   
      0.371403070705   0.371785862654   0.372133367485   0.372443906934   0.372716004889   
      0.372948386311   0.37313997584   0.373289896284   0.373397467161   0.373462203417   
      0.362415864358   0.362393323769   0.362325805573   0.362213620668   0.362057287796   
      0.361857534351   0.361615297403   0.36133172481   0.361008176286   0.360646224247   
      0.360247654227   0.359814464649   0.35934886571   0.358853277105   0.358330324346   
      0.357782833392   0.357213823362   0.356626497067   0.356024229182   0.355410551894   
      0.354789137903   0.354163780751   0.353538372484   0.352916878754   0.352303311528   
      0.35170169966   0.351116057636   0.35055035289   0.350008472118   0.34949418708   
      0.349011120381   0.34856271177   0.348152185453   0.34778251893   0.347456413812   
      0.347176269068   0.346944157059   0.346761802716   0.34663056613   0.346551428775   
      0.346524983555   0.346551428775   0.34663056613   0.346761802716   0.346944157059   
      0.347176269068   0.347456413812   0.34778251893   0.348152185453   0.34856271177   
      0.349011120381   0.34949418708   0.350008472118   0.35055035289   0.351116057636   
      0.35170169966   0.352303311528   0.352916878754   0.353538372484   0.354163780751   
      0.354789137903   0.355410551894   0.356024229182   0.356626497067   0.357213823362   
      0.357782833392   0.358330324346   0.358853277105   0.35934886571   0.359814464649   
      0.360247654227   0.360646224247   0.361008176286   0.36133172481   0.361615297403   
      0.361857534351   0.362057287796   0.362213620668   0.362325805573   0.362393323769   
      0.355347639353   0.355324602923   0.355255601411   0.355140958295   0.354981213191   
      0.354777122512   0.354529660283   0.354240018973   0.353909610213   0.353540065202   
      0.353133234614   0.35269118776   0.352216210764   0.351710803495   0.351177674998   
      0.350619737147   0.350040096297   0.349442042703   0.348829037533   0.348204697322   
      0.347572775816   0.346937143157   0.346301762497   0.34567066416   0.345047917559   
      0.344437601159   0.34384377083   0.343270426992   0.342721481022   0.342200721379   
      0.341711779966   0.341258099223   0.34084290043   0.340469153679   0.34013954994   
      0.339856475585   0.33962198971   0.339437804507   0.339305268934   0.339225355835   
      0.339198652655   0.339225355835   0.339305268934   0.339437804507   0.33962198971   
      0.339856475585   0.34013954994   0.340469153679   0.34084290043   0.341258099223   
      0.341711779966   0.342200721379   0.342721481022   0.343270426992   0.34384377083   
      0.344437601159   0.345047917559   0.34567066416   0.346301762497   0.346937143157   
      0.347572775816   0.348204697322   0.348829037533   0.349442042703   0.350040096297   
      0.350619737147   0.351177674998   0.351710803495   0.352216210764   0.35269118776   
      0.353133234614   0.353540065202   0.353909610213   0.354240018973   0.354529660283   
      0.354777122512   0.354981213191   0.355140958295   0.355255601411   0.355324602923   
      0.351923025164   0.3518997785   0.35183014829   0.351714464016   0.351553275238   
      0.351347352185   0.351097686444   0.350805491639   0.35047220396   0.350099482326   
      0.349689208014   0.34924348349   0.348764630206   0.348255185114   0.347717895611   
      0.347155712689   0.346571782033   0.345969432859   0.34535216433   0.344723629418   
      0.344087616151   0.343448026255   0.342808851255   0.3421741462   0.341548001233   
      0.340934511307   0.340337744411   0.339761708719   0.339210319126   0.338687363647   
      0.338196470176   0.337741074085   0.337324387144   0.336949368173   0.336618695838   
      0.336334743931   0.336099559417   0.335914843503   0.335781935909   0.335701802498   
      0.335675026373   0.335701802498   0.335781935909   0.335914843503   0.336099559417   
      0.336334743931   0.336618695838   0.336949368173   0.337324387144   0.337741074085   
      0.338196470176   0.338687363647   0.339210319126   0.339761708719   0.340337744411   
      0.340934511307   0.341548001233   0.3421741462   0.342808851255   0.343448026255   
      0.344087616151   0.344723629418   0.34535216433   0.345969432859   0.346571782033   
      0.347155712689   0.347717895611   0.348255185114   0.348764630206   0.34924348349   
      0.349689208014   0.350099482326   0.35047220396   0.350805491639   0.351097686444   
      0.351347352185   0.351553275238   0.351714464016   0.35183014829   0.3518997785   
      0.351923025164   0.3518997785   0.35183014829   0.351714464016   0.351553275238   
      0.351347352185   0.351097686444   0.350805491639   0.35047220396   0.350099482326   
      0.349689208014   0.34924348349   0.348764630206   0.348255185114   0.347717895611   
      0.347155712689   0.346571782033   0.345969432859   0.34535216433   0.344723629418   
      0.344087616151   0.343448026255   0.342808851255   0.3421741462   0.341548001233   
      0.340934511307   0.340337744411   0.339761708719   0.339210319126   0.338687363647   
      0.338196470176   0.337741074085   0.337324387144   0.336949368173   0.336618695838   
      0.336334743931   0.336099559417   0.335914843503   0.335781935909   0.335701802498   
      0.335675026373   0.335701802498   0.335781935909   0.335914843503   0.336099559417   
      0.336334743931   0.336618695838   0.336949368173   0.337324387144   0.337741074085   
      0.338196470176   0.338687363647   0.339210319126   0.339761708719   0.340337744411   
      0.340934511307   0.341548001233   0.3421741462   0.342808851255   0.343448026255   
      0.344087616151   0.344723629418   0.34535216433   0.345969432859   0.346571782033   
      0.347155712689   0.347717895611   0.348255185114   0.348764630206   0.34924348349   
      0.349689208014   0.350099482326   0.35047220396   0.350805491639   0.351097686444   
      0.351347352185   0.351553275238   0.351714464016   0.35183014829   0.3518997785   
      0.355347639353   0.355324602923   0.355255601411   0.355140958295   0.354981213191   
      0.354777122512   0.354529660283   0.354240018973   0.353909610213   0.353540065202   
      0.353133234614   0.35269118776   0.352216210764   0.351710803495   0.351177674998   
      0.350619737147   0.350040096297   0.349442042703   0.348829037533   0.348204697322   
      0.347572775816   0.346937143157   0.346301762497   0.34567066416   0.345047917559   
      0.344437601159   0.34384377083   0.343270426992   0.342721481022   0.342200721379   
      0.341711779966   0.341258099223   0.34084290043   0.340469153679   0.34013954994   
      0.339856475585   0.33962198971   0.339437804507   0.339305268934   0.339225355835   
      0.339198652655   0.339225355835   0.339305268934   0.339437804507   0.33962198971   
      0.339856475585   0.34013954994   0.340469153679   0.34084290043   0.341258099223   
      0.341711779966   0.342200721379   0.342721481022   0.343270426992   0.34384377083   
      0.344437601159   0.345047917559   0.34567066416   0.346301762497   0.346937143157   
      0.347572775816   0.348204697322   0.348829037533   0.349442042703   0.350040096297   
      0.350619737147   0.351177674998   0.351710803495   0.352216210764   0.35269118776   
      0.353133234614   0.353540065202   0.353909610213   0.354240018973   0.354529660283   
      0.354777122512   0.354981213191   0.355140958295   0.355255601411   0.355324602923   
      0.362415864358   0.362393323769   0.362325805573   0.362213620668   0.362057287796   
      0.361857534351   0.361615297403   0.36133172481   0.361008176286   0.360646224247   
      0.360247654227   0.359814464649   0.35934886571   0.358853277105   0.358330324346   
      0.357782833392   0.357213823362   0.356626497067   0.356024229182   0.355410551894   
      0.354789137903   0.354163780751   0.353538372484   0.352916878754   0.352303311528   
      0.35170169966   0.351116057636   0.35055035289   0.350008472118   0.34949418708   
      0.349011120381   0.34856271177   0.348152185453   0.34778251893   0.347456413812   
      0.347176269068   0.346944157059   0.346761802716   0.34663056613   0.346551428775   
      0.346524983555   0.346551428775   0.34663056613   0.346761802716   0.346944157059   
      0.347176269068   0.347456413812   0.34778251893   0.348152185453   0.34856271177   
      0.349011120381   0.34949418708   0.350008472118   0.35055035289   0.351116057636   
      0.35170169966   0.352303311528   0.352916878754   0.353538372484   0.354163780751   
      0.354789137903   0.355410551894   0.356024229182   0.356626497067   0.357213823362   
      0.357782833392   0.358330324346   0.358853277105   0.35934886571   0.359814464649   
      0.360247654227   0.360646224247   0.361008176286   0.36133172481   0.361615297403   
      0.361857534351   0.362057287796   0.362213620668   0.362325805573   0.362393323769   
      0.373483814435   0.373462203417   0.373397467161   0.373289896284   0.37313997584   
      0.372948386311   0.372716004889   0.372443906934   0.372133367485   0.371785862654   
      0.371403070705   0.370986872615   0.370539351879   0.370062793293   0.369559680468   
      0.369032691803   0.368484694642   0.367918737395   0.367338039365   0.366745978117   
      0.366146074237   0.365541973388   0.364937425645   0.364336262157   0.363742369254   
      0.363159660206   0.362592044906   0.362043397831   0.361517524694   0.361018128252   
      0.36054877378   0.360112854746   0.359713559236   0.359353837668   0.359036372335   
      0.358763549257   0.358537432819   0.358359743589   0.358231839683   0.358154701957   
      0.358128923266   0.358154701957   0.358231839683   0.358359743589   0.358537432819   
      0.358763549257   0.359036372335   0.359353837668   0.359713559236   0.360112854746   
      0.36054877378   0.361018128252   0.361517524694   0.362043397831   0.362592044906   
      0.363159660206   0.363742369254   0.364336262157   0.364937425645   0.365541973388   
      0.366146074237   0.366745978117   0.367338039365   0.367918737395   0.368484694642   
      0.369032691803   0.369559680468   0.370062793293   0.370539351879   0.370986872615   
      0.371403070705   0.371785862654   0.372133367485   0.372443906934   0.372716004889   
      0.372948386311   0.37313997584   0.373289896284   0.373397467161   0.373462203417   
      0.388910707708   0.388890664778   0.388830622988   0.388730843591   0.388591762808   
      0.38841399298   0.388198324093   0.387945725564   0.387657348181   0.387334526031   
      0.386978778267   0.386591810476   0.386175515466   0.385731973206   0.385263449666   
      0.384772394317   0.384261435991   0.383733376885   0.38319118443   0.382637980839   
      0.382077030147   0.381511722603   0.380945556366   0.380382116471   0.379825051146   
      0.379278045629   0.378744793686   0.378228967149   0.377734183841   0.377263974328   
      0.376821747984   0.376410758923   0.376034072349   0.375694531918   0.375394728677   
      0.375136972147   0.374923264077   0.374755275359   0.37463432652   0.374561372162   
      0.374536989636   0.374561372162   0.37463432652   0.374755275359   0.374923264077   
      0.375136972147   0.375394728677   0.375694531918   0.376034072349   0.376410758923   
      0.376821747984   0.377263974328   0.377734183841   0.378228967149   0.378744793686   
      0.379278045629   0.379825051146   0.380382116471   0.380945556366   0.381511722603   
      0.382077030147   0.382637980839   0.38319118443   0.383733376885   0.384261435991   
      0.384772394317   0.385263449666   0.385731973206   0.386175515466   0.386591810476   
      0.386978778267   0.387334526031   0.387657348181   0.387945725564   0.388198324093   
      0.38841399298   0.388591762808   0.388730843591   0.388830622988   0.388890664778   
      0.408704969437   0.408687289779   0.408634324917   0.408546297443   0.4084235792   