<?xml version="1.0"?>
<VTKFile type="ImageData" version="0.1" byte_order="LittleEndian">
  <ImageData WholeExtent="0 79 0 19 0 19" Origin="0 0 0" Spacing="1 1 1">
  <Piece Extent="0 79 0 19 0 19">
    <PointData Scalars="density">
       <DataArray type="Float32" Name="bluedensity" NumberOfComponents="1" format="ascii">
      0   0   0   0   0   
      0   0   0   0   0   
      0   0   0   0   0   
      0   0   0   0   0   
      0   0   0   0   0   
      0   0   0   0   0   
      0   0   0   0   0   
      0   0   0   0   0   
      0   0   0   0   0   
      0   0   0   0   0   
      0   0   0   0   0   
      0   0   0   0   0   
      0   0   0   0   0   
      0   0   0   0   0   
      0   0   0   0   0   
      0   0   0   0   0   
      0   0   0   0   0   
      0   0   0   0   0   
      0   0   0   0   0   
      0   0   0   0   0   
      0   0   0   0   0   
      0   0   0   0   0   
      0   0   0   0   0   
      0   0   0   0   0   
      0   0   0   0   0   
      0   0   0   0   0   
      0   0   0   0   0   
      0   0   0   0   0   
      0   0   0   0   0   
      0   0   0   0   0   
      0   0   0   0   0   
      0   0   0   0   0   
      0   0   0   0   0   
      0   0   0   0   0   
      0   0   0   0   0   
      0   0   0   0   0   
      0   0   0   0   0   
      0   0   0   0   0   
      0   0   0   0   0   
      0   0   0   0   0   
      0   0   0   0   0   
      0   0   0   0   0   
      0   0   0   0   0   
      0   0   0   0   0   
      0   0   0   0   0   
      0   0   0   0   0   
      0   0   0   0   0   
      0   0   0   0   0   
      0   0   0   0   0   
      0   0   0   0   0   
      0   0   0   0   0   
      0   0   0   0   0   
      0   0   0   0   0   
      0   0   0   0   0   
      0   0   0   0   0   
      0   0   0   0   0   
      0   0   0   0   0   
      0   0   0   0   0   
      0   0   0   0   0   
      0   0   0   0   0   
      0   0   0   0   0   
      0   0   0   0   0   
      0   0   0   0   0   
      0   0   0   0   0   
      0   0   0   0   0   
      0   0   0   0   0   
      0   0   0   0   0   
      0   0   0   0   0   
      0   0   0   0   0   
      0   0   0   0   0   
      0   0   0   0   0   
      0   0   0   0   0   
      0   0   0   0   0   
      0   0   0   0   0   
      0   0   0   0   0   
      0   0   0   0   0   
      0   0   0   0   0   
      0   0   0   0   0   
      0   0   0   0   0   
      0   0   0   0   0   
      0   0   0   0   0   
      0   0   0   0   0   
      0   0   0   0   0   
      0   0   0   0   0   
      0   0   0   0   0   
      0   0   0   0   0   
      0   0   0   0   0   
      0   0   0   0   0   
      0   0   0   0   0   
      0   0   0   0   0   
      0   0   0   0   0   
      0   0   0   0   0   
      0   0   0   0   0   
      0   0   0   0   0   
      0   0   0   0   0   
      0   0   0   0   0   
      0   0   0   0   0   
      0   0   0   0   0   
      0   0   0   0   0   
      0   0   0   0   0   
      0   0   0   0   0   
      0   0   0   0   0   
      0   0   0   0   0   
      0   0   0   0   0   
      0   0   0   0   0   
      0   0   0   0   0   
      0   0   0   0   0   
      0   0   0   0   0   
      0   0   0   0   0   
      0   0   0   0   0   
      0   0   0   0   0   
      0   0   0   0   0   
      0   0   0   0   0   
      0   0   0   0   0   
      0   0   0   0   0   
      0   0   0   0   0   
      0   0   0   0   0   
      0   0   0   0   0   
      0   0   0   0   0   
      0   0   0   0   0   
      0   0   0   0   0   
      0   0   0   0   0   
      0   0   0   0   0   
      0   0   0   0   0   
      0   0   0   0   0   
      0   0   0   0   0   
      0   0   0   0   0   
      0   0   0   0   0   
      0   0   0   0   0   
      0   0   0   0   0   
      0   0   0   0   0   
      0   0   0   0   0   
      0   0   0   0   0   
      0   0   0   0   0   
      0   0   0   0   0   
      0   0   0   0   0   
      0   0   0   0   0   
      0   0   0   0   0   
      0   0   0   0   0   
      0   0   0   0   0   
      0   0   0   0   0   
      0   0   0   0   0   
      0   0   0   0   0   
      0   0   0   0   0   
      0   0   0   0   0   
      0   0   0   0   0   
      0   0   0   0   0   
      0   0   0   0   0   
      0   0   0   0   0   
      0   0   0   0   0   
      0   0   0   0   0   
      0   0   0   0   0   
      0   0   0   0   0   
      0   0   0   0   0   
      0   0   0   0   0   
      0   0   0   0   0   
      0   0   0   0   0   
      0   0   0   0   0   
      0   0   0   0   0   
      0   0   0   0   0   
      0   0   0   0   0   
      0   0   0   0   0   
      0   0   0   0   0   
      0   0   0   0   0   
      0   0   0   0   0   
      0   0   0   0   0   
      0   0   0   0   0   
      0   0   0   0   0   
      0   0   0   0   0   
      0   0   0   0   0   
      0   0   0   0   0   
      0   0   0   0   0   
      0   0   0   0   0   
      0   0   0   0   0   
      0   0   0   0   0   
      0   0   0   0   0   
      0   0   0   0   0   
      0   0   0   0   0   
      0   0   0   0   0   
      0   0   0   0   0   
      0   0   0   0   0   
      0   0   0   0   0   
      0   0   0   0   0   
      0   0   0   0   0   
      0   0   0   0   0   
      0   0   0   0   0   
      0   0   0   0   0   
      0   0   0   0   0   
      0   0   0   0   0   
      0   0   0   0   0   
      0   0   0   0   0   
      0   0   0   0   0   
      0   0   0   0   0   
      0   0   0   0   0   
      0   0   0   0   0   
      0   0   0   0   0   
      0   0   0   0   0   
      0   0   0   0   0   
      0   0   0   0   0   
      0   0   0   0   0   
      0   0   0   0   0   
      0   0   0   0   0   
      0   0   0   0   0   
      0   0   0   0   0   
      0   0   0   0   0   
      0   0   0   0   0   
      0   0   0   0   0   
      0   0   0   0   0   
      0   0   0   0   0   
      0   0   0   0   0   
      0   0   0   0   0   
      0   0   0   0   0   
      0   0   0   0   0   
      0   0   0   0   0   
      0   0   0   0   0   
      0   0   0   0   0   
      0   0   0   0   0   
      0   0   0   0   0   
      0   0   0   0   0   
      0   0   0   0   0   
      0   0   0   0   0   
      0   0   0   0   0   
      0   0   0   0   0   
      0   0   0   0   0   
      0   0   0   0   0   
      0   0   0   0   0   
      0   0   0   0   0   
      0   0   0   0   0   
      0   0   0   0   0   
      0   0   0   0   0   
      0   0   0   0   0   
      0   0   0   0   0   
      0   0   0   0   0   
      0   0   0   0   0   
      0   0   0   0   0   
      0   0   0   0   0   
      0   0   0   0   0   
      0   0   0   0   0   
      0   0   0   0   0   
      0   0   0   0   0   
      0   0   0   0   0   
      0   0   0   0   0   
      0   0   0   0   0   
      0   0   0   0   0   
      0   0   0   0   0   
      0   0   0   0   0   
      0   0   0   0   0   
      0   0   0   0   0   
      0   0   0   0   0   
      0   0   0   0   0   
      0   0   0   0   0   
      0   0   0   0   0   
      0   0   0   0   0   
      0   0   0   0   0   
      0   0   0   0   0   
      0   0   0   0   0   
      0   0   0   0   0   
      0   0   0   0   0   
      0   0   0   0   0   
      0   0   0   0   0   
      0   0   0   0   0   
      0   0   0   0   0   
      0   0   0   0   0   
      0   0   0   0   0   
      0   0   0   0   0   
      0   0   0   0   0   
      0   0   0   0   0   
      0   0   0   0   0   
      0   0   0   0   0   
      0   0   0   0   0   
      0   0   0   0   0   
      0   0   0   0   0   
      0   0   0   0   0   
      0   0   0   0   0   
      0   0   0   0   0   
      0   0   0   0   0   
      0   0   0   0   0   
      0   0   0   0   0   
      0   0   0   0   0   
      0   0   0   0   0   
      0   0   0   0   0   
      0   0   0   0   0   
      0   0   0   0   0   
      0   0   0   0   0   
      0   0   0   0   0   
      0   0   0   0   0   
      0   0   0   0   0   
      0   0   0   0   0   
      0   0   0   0   0   
      0   0   0   0   0   
      0   0   0   0   0   
      0   0   0   0   0   
      0   0   0   0   0   
      0   0   0   0   0   
      0   0   0   0   0   
      0   0   0   0   0   
      0   0   0   0   0   
      0   0   0   0   0   
      0   0   0   0   0   
      0   0   0   0   0   
      0   0   0   0   0   
      0   0   0   0   0   
      0   0   0   0   0   
      0   0   0   0   0   
      0   0   0   0   0   
      0   0   0   0   0   
      0   0   0   0   0   
      0   0   0   0   0   
      0   0   0   0   0   
      0   0   0   0   0   
      0   0   0   0   0   
      0   0   0   0   0   
      0   0   0   0   0   
      0   0   0   0   0   
      0   0   0   0   0   
      0   0   0   0   0   
      0   0   0   0   0   
      0   0   0   0   0   
      0   0   0   0   0   
      0   0   0   0   0   
      0   0   0   0   0   
      0   0   0   0   0   
      0   0   0   0   0   
      0   0   0   0   0   
      0   0   0   0   0   
      0   0   0   0   0   
      0   0   0   0   0   
      0   0   0   0   0   
      0   0   0   0   0   
      0   0   0   0   0   
      0   0   0   0   0   
      0   0   0   0   0   
      0   0   0   0   0   
      0   0   0   0   0   
      0   0   0   0   0   
      0   0   0   0   0   
      0.571435558079   0.57142871287   0.571408206751   0.571374128323   0.571326625485   
      0.571265905766   0.571192236769   0.571105946692   0.571007424897   0.570897122484   
      0.570775552822   0.570643291976   0.570500978972   0.570349315826   0.570189067254   
      0.570021059991   0.569846181639   0.569665378935   0.56947965538   0.569290068139   
      0.569097724132   0.568903775263   0.568709412736   0.568515860416   0.568324367246   
      0.568136198714   0.56795262742   0.567774922818   0.567604340222   0.56744210922   
      0.567289421636   0.567147419255   0.567017181485   0.566899713205   0.566795933031   
      0.566706662239   0.566632614576   0.566574387205   0.566532452977   0.566507154214   
      0.566498698162   0.566507154214   0.566532452977   0.566574387205   0.566632614576   
      0.566706662239   0.566795933031   0.566899713205   0.567017181485   0.567147419255   
      0.567289421636   0.56744210922   0.567604340222   0.567774922818   0.56795262742   
      0.568136198714   0.568324367246   0.568515860416   0.568709412736   0.568903775263   
      0.569097724132   0.569290068139   0.56947965538   0.569665378935   0.569846181639   
      0.570021059991   0.570189067254   0.570349315826   0.570500978972   0.570643291976   
      0.570775552822   0.570897122484   0.571007424897   0.571105946692   0.571192236769   
      0.571265905766   0.571326625485   0.571374128323   0.571408206751   0.57142871287   
      0.458837025441   0.45882752649   0.458799070583   0.458751780669   0.458685861996   
      0.458601602605   0.458499373972   0.45837963177   0.458242916698   0.458089855321   
      0.457921160839   0.457737633715   0.457540162055   0.457329721652   0.457107375578   
      0.456874273205   0.456631648547   0.456380817791   0.456123175915   0.455860192264   
      0.455593405011   0.455324414394   0.455054874689   0.45478648487   0.45452097795   
      0.454260109044   0.454005642203   0.453759336137   0.453522928958   0.453298122149   
      0.453086563959   0.452889832502   0.452709418821   0.452546710255   0.452402974393   
      0.452279343972   0.452176803014   0.452096174509   0.452038109933   0.452003080819   
      0.451991372593   0.452003080819   0.452038109933   0.452096174509   0.452176803014   
      0.452279343972   0.452402974393   0.452546710255   0.452709418821   0.452889832502   
      0.453086563959   0.453298122149   0.453522928958   0.453759336137   0.454005642203   
      0.454260109044   0.45452097795   0.45478648487   0.455054874689   0.455324414394   
      0.455593405011   0.455860192264   0.456123175915   0.456380817791   0.456631648547   
      0.456874273205   0.457107375578   0.457329721652   0.457540162055   0.457737633715   
      0.457921160839   0.458089855321   0.458242916698   0.45837963177   0.458499373972   
      0.458601602605   0.458685861996   0.458751780669   0.458799070583   0.45882752649   
      0.43313893807   0.433126694308   0.433090016842   0.433029067237   0.43294411515   
      0.43283553887   0.432703826026   0.432549574413   0.432373492863   0.432176402084   
      0.431959235382   0.431723039145   0.431468972981   0.431198309374   0.430912432728   
      0.430612837648   0.430301126319   0.429979004834   0.429648278332   0.429310844833   
      0.428968687633   0.428623866197   0.428278505476   0.427934783619   0.427594918104   
      0.427261150321   0.426935728727   0.426620890708   0.426318843331   0.426031743254   
      0.425761676033   0.425510635183   0.425280501309   0.425073021689   0.424889790684   
      0.424732231352   0.424601578643   0.424498864507   0.424424905246   0.424380291376   
      0.424365380216   0.424380291376   0.424424905246   0.424498864507   0.424601578643   
      0.424732231352   0.424889790684   0.425073021689   0.425280501309   0.425510635183   
      0.425761676033   0.426031743254   0.426318843331   0.426620890708   0.426935728727   
      0.427261150321   0.427594918104   0.427934783619   0.428278505476   0.428623866197   
      0.428968687633   0.429310844833   0.429648278332   0.429979004834   0.430301126319   
      0.430612837648   0.430912432728   0.431198309374   0.431468972981   0.431723039145   
      0.431959235382   0.432176402084   0.432373492863   0.432549574413   0.432703826026   
      0.43283553887   0.43294411515   0.433029067237   0.433090016842   0.433126694308   
      0.407692194618   0.407677266663   0.40763255019   0.407558247481   0.407454696026   
      0.407322369024   0.407161876008   0.406973963562   0.406759516012   0.406519556021   
      0.406255244967   0.405967882965   0.405658908416   0.4053298969   0.40498255928   
      0.404618738844   0.404240407312   0.403849659568   0.403448706948   0.403039868971   
      0.402625563392   0.402208294501   0.401790639621   0.401375233805   0.400964752763   
      0.400561894119   0.400169357125   0.399789821035   0.399425922363   0.39908023133   
      0.398755227807   0.398453277129   0.398176606166   0.397927280045   0.397707179945   
      0.397517982363   0.397361140238   0.397237866303   0.397149118982   0.397095591117   
      0.397077701749   0.397095591117   0.397149118982   0.397237866303   0.397361140238   
      0.397517982363   0.397707179945   0.397927280045   0.398176606166   0.398453277129   
      0.398755227807   0.39908023133   0.399425922363   0.399789821035   0.400169357125   
      0.400561894119   0.400964752763   0.401375233805   0.401790639621   0.402208294501   
      0.402625563392   0.403039868971   0.403448706948   0.403849659568   0.404240407312   
      0.404618738844   0.40498255928   0.4053298969   0.405658908416   0.405967882965   
      0.406255244967   0.406519556021   0.406759516012   0.406973963562   0.407161876008   
      0.407322369024   0.407454696026   0.407558247481   0.40763255019   0.407677266663   
      0.387759981754   0.38774308259   0.38769246357   0.387608360183   0.387491165177   
      0.38734142891   0.387159859775   0.386947324628   0.386704849115   0.386433617801   
      0.386134973971   0.38581041896   0.385461610855   0.385090362411   0.384698638007   
      0.384288549478   0.383862350636   0.383422430346   0.382971304002   0.382511603275   
      0.382046064054   0.381577512519   0.381108849312   0.380643031864   0.380183054917   
      0.379731929403   0.379292659823   0.378868220388   0.378461530166   0.378075427573   
      0.377712644542   0.377375780765   0.37706727839   0.376789397588   0.376544193386   
      0.376333494168   0.376158882194   0.376021676509   0.375922918506   0.375863360433   
      0.375843457026   0.375863360433   0.375922918506   0.376021676509   0.376158882194   
      0.376333494168   0.376544193386   0.376789397588   0.37706727839   0.377375780765   
      0.377712644542   0.378075427573   0.378461530166   0.378868220388   0.379292659823   
      0.379731929403   0.380183054917   0.380643031864   0.381108849312   0.381577512519   
      0.382046064054   0.382511603275   0.382971304002   0.383422430346   0.383862350636   
      0.384288549478   0.384698638007   0.385090362411   0.385461610855   0.38581041896   
      0.386134973971   0.386433617801   0.386704849115   0.386947324628   0.387159859775   
      0.38734142891   0.387491165177   0.387608360183   0.38769246357   0.38774308259   
      0.372241332741   0.372223135778   0.372168631573   0.372078080214   0.371951915328   
      0.371790744246   0.371595348171   0.371366682253   0.371105875483   0.370814230276   
      0.370493221631   0.3701444957   0.369769867605   0.369371318356   0.368950990671   
      0.368511183545   0.368054345404   0.367583065687   0.367100064734   0.366608181882   
      0.366110361684   0.365609638241   0.365109117649   0.364611958617   0.364121351382   
      0.363640495074   0.363172573731   0.362720731236   0.362288045471   0.361877501996   
      0.361491967652   0.361134164418   0.360806643949   0.360511763146   0.360251661154   
      0.360028238139   0.359843136168   0.359697722498   0.359593075544   0.359529973715   
      0.359508887332   0.359529973715   0.359593075544   0.359697722498   0.359843136168   
      0.360028238139   0.360251661154   0.360511763146   0.360806643949   0.361134164418   
      0.361491967652   0.361877501996   0.362288045471   0.362720731236   0.363172573731   
      0.363640495074   0.364121351382   0.364611958617   0.365109117649   0.365609638241   
      0.366110361684   0.366608181882   0.367100064734   0.367583065687   0.368054345404   
      0.368511183545   0.368950990671   0.369371318356   0.369769867605   0.3701444957   
      0.370493221631   0.370814230276   0.371105875483   0.371366682253   0.371595348171   
      0.371790744246   0.371951915328   0.372078080214   0.372168631573   0.372223135778   
      0.36111883915   0.361099880707   0.361043097596   0.360948766475   0.36081734847   
      0.360649489166   0.36044601852   0.36020795061   0.359936483109   0.359632996383   
      0.359299052051   0.358936390877   0.358546929814   0.358132758045   0.357696131848   
      0.357239468114   0.356765336378   0.356276449219   0.355775650912   0.355265904267   
      0.354750275595   0.354231917806   0.353714051676   0.353199945384   0.352692892447   
      0.352196188249   0.351713105396   0.351246868168   0.350800626386   0.350377429019   
      0.349980197889   0.349611701848   0.349274531767   0.348971076724   0.348703501703   
      0.348473727133   0.348283410562   0.348133930698   0.348026374063   0.347961524415   
      0.3479398551   0.347961524415   0.348026374063   0.348133930698   0.348283410562   
      0.348473727133   0.348703501703   0.348971076724   0.349274531767   0.349611701848   
      0.349980197889   0.350377429019   0.350800626386   0.351246868168   0.351713105396   
      0.352196188249   0.352692892447   0.353199945384   0.353714051676   0.354231917806   
      0.354750275595   0.355265904267   0.355775650912   0.356276449219   0.356765336378   
      0.357239468114   0.357696131848   0.358132758045   0.358546929814   0.358936390877   
      0.359299052051   0.359632996383   0.359936483109   0.36020795061   0.36044601852   
      0.360649489166   0.36081734847   0.360948766475   0.361043097596   0.361099880707   
      0.354021443641   0.354002083839   0.353944100011   0.353847778873   0.35371359822   
      0.353542226783   0.353334523951   0.353091539262   0.352814511572   0.352504867766   
      0.352164220888   0.35179436752   0.35139728426   0.350975123129   0.350530205741   
      0.350065016084   0.34958219176   0.349084513567   0.34857489332   0.348056359851   
      0.347532043163   0.347005156747   0.346478978144   0.345956827846   0.345442046707   
      0.344937972072   0.344447912866   0.343975123936   0.343522779955   0.343093949226   
      0.342691567736   0.3423184138   0.341977083658   0.341669968334   0.341399232083   
      0.3411667927   0.340974303949   0.340823140328   0.340714384354   0.340648816524   
      0.34062690806   0.340648816524   0.340714384354   0.340823140328   0.340974303949   
      0.3411667927   0.341399232083   0.341669968334   0.341977083658   0.3423184138   
      0.342691567736   0.343093949226   0.343522779955   0.343975123936   0.344447912866   
      0.344937972072   0.345442046707   0.345956827846   0.346478978144   0.347005156747   
      0.347532043163   0.348056359851   0.34857489332   0.349084513567   0.34958219176   
      0.350065016084   0.350530205741   0.350975123129   0.35139728426   0.35179436752   
      0.352164220888   0.352504867766   0.352814511572   0.353091539262   0.353334523951   
      0.353542226783   0.35371359822   0.353847778873   0.353944100011   0.354002083839   
      0.350584436132   0.350564907976   0.350506420664   0.350409265637   0.350273928511   
      0.350101088867   0.349891619864   0.349646587593   0.349367250082   0.349055055802   
      0.348711641563   0.348338829626   0.347938623876   0.347513204903   0.347064923805   
      0.346596294589   0.346109985004   0.345608805709   0.345095697671   0.344573717753   
      0.344046022467   0.343515849919   0.342986500038   0.34246131319   0.341943647374   
      0.341436854187   0.340944253845   0.340469109531   0.340014601384   0.339583800483   
      0.339179643146   0.338804905902   0.338462181463   0.338153856006   0.337882088075   
      0.337648789342   0.337455607492   0.337303911399   0.337194778791   0.337128986507   
      0.337107003485   0.337128986507   0.337194778791   0.337303911399   0.337455607492   
      0.337648789342   0.337882088075   0.338153856006   0.338462181463   0.338804905902   
      0.339179643146   0.339583800483   0.340014601384   0.340469109531   0.340944253845   
      0.341436854187   0.341943647374   0.34246131319   0.342986500038   0.343515849919   
      0.344046022467   0.344573717753   0.345095697671   0.345608805709   0.346109985004   
      0.346596294589   0.347064923805   0.347513204903   0.347938623876   0.348338829626   
      0.348711641563   0.349055055802   0.349367250082   0.349646587593   0.349891619864   
      0.350101088867   0.350273928511   0.350409265637   0.350506420664   0.350564907976   
      0.350584436132   0.350564907976   0.350506420664   0.350409265637   0.350273928511   
      0.350101088867   0.349891619864   0.349646587593   0.349367250082   0.349055055802   
      0.348711641563   0.348338829626   0.347938623876   0.347513204903   0.347064923805   
      0.346596294589   0.346109985004   0.345608805709   0.345095697671   0.344573717753   
      0.344046022467   0.343515849919   0.342986500038   0.34246131319   0.341943647374   
      0.341436854187   0.340944253845   0.340469109531   0.340014601384   0.339583800483   
      0.339179643146   0.338804905902   0.338462181463   0.338153856006   0.337882088075   
      0.337648789342   0.337455607492   0.337303911399   0.337194778791   0.337128986507   
      0.337107003485   0.337128986507   0.337194778791   0.337303911399   0.337455607492   
      0.337648789342   0.337882088075   0.338153856006   0.338462181463   0.338804905902   
      0.339179643146   0.339583800483   0.340014601384   0.340469109531   0.340944253845   
      0.341436854187   0.341943647374   0.34246131319   0.342986500038   0.343515849919   
      0.344046022467   0.344573717753   0.345095697671   0.345608805709   0.346109985004   
      0.346596294589   0.347064923805   0.347513204903   0.347938623876   0.348338829626   
      0.348711641563   0.349055055802   0.349367250082   0.349646587593   0.349891619864   
      0.350101088867   0.350273928511   0.350409265637   0.350506420664   0.350564907976   
      0.354021443641   0.354002083839   0.353944100011   0.353847778873   0.35371359822   
      0.353542226783   0.353334523951   0.353091539262   0.352814511572   0.352504867766   
      0.352164220888   0.35179436752   0.35139728426   0.350975123129   0.350530205741   
      0.350065016084   0.34958219176   0.349084513567   0.34857489332   0.348056359851   
      0.347532043163   0.347005156747   0.346478978144   0.345956827846   0.345442046707   
      0.344937972072   0.344447912866   0.343975123936   0.343522779955   0.343093949226   
      0.342691567736   0.3423184138   0.341977083658   0.341669968334   0.341399232083   
      0.3411667927   0.340974303949   0.340823140328   0.340714384354   0.340648816524   
      0.34062690806   0.340648816524   0.340714384354   0.340823140328   0.340974303949   
      0.3411667927   0.341399232083   0.341669968334   0.341977083658   0.3423184138   
      0.342691567736   0.343093949226   0.343522779955   0.343975123936   0.344447912866   
      0.344937972072   0.345442046707   0.345956827846   0.346478978144   0.347005156747   
      0.347532043163   0.348056359851   0.34857489332   0.349084513567   0.34958219176   
      0.350065016084   0.350530205741   0.350975123129   0.35139728426   0.35179436752   
      0.352164220888   0.352504867766   0.352814511572   0.353091539262   0.353334523951   
      0.353542226783   0.35371359822   0.353847778873   0.353944100011   0.354002083839   
      0.36111883915   0.361099880707   0.361043097596   0.360948766475   0.36081734847   
      0.360649489166   0.36044601852   0.36020795061   0.359936483109   0.359632996383   
      0.359299052051   0.358936390877   0.358546929814   0.358132758045   0.357696131848   
      0.357239468114   0.356765336378   0.356276449219   0.355775650912   0.355265904267   
      0.354750275595   0.354231917806   0.353714051676   0.353199945384   0.352692892447   
      0.352196188249   0.351713105396   0.351246868168   0.350800626386   0.350377429019   
      0.349980197889   0.349611701848   0.349274531767   0.348971076724   0.348703501703   
      0.348473727133   0.348283410562   0.348133930698   0.348026374063   0.347961524415   
      0.3479398551   0.347961524415   0.348026374063   0.348133930698   0.348283410562   
      0.348473727133   0.348703501703   0.348971076724   0.349274531767   0.349611701848   
      0.349980197889   0.350377429019   0.350800626386   0.351246868168   0.351713105396   
      0.352196188249   0.352692892447   0.353199945384   0.353714051676   0.354231917806   
      0.354750275595   0.355265904267   0.355775650912   0.356276449219   0.356765336378   
      0.357239468114   0.357696131848   0.358132758045   0.358546929814   0.358936390877   
      0.359299052051   0.359632996383   0.359936483109   0.36020795061   0.36044601852   
      0.360649489166   0.36081734847   0.360948766475   0.361043097596   0.361099880707   
      0.372241332741   0.372223135778   0.372168631573   0.372078080214   0.371951915328   
      0.371790744246   0.371595348171   0.371366682253   0.371105875483   0.370814230276   
      0.370493221631   0.3701444957   0.369769867605   0.369371318356   0.368950990671   
      0.368511183545   0.368054345404   0.367583065687   0.367100064734   0.366608181882   
      0.366110361684   0.365609638241   0.365109117649   0.364611958617   0.364121351382   
      0.363640495074   0.363172573731   0.362720731236   0.362288045471   0.361877501996   
      0.361491967652   0.361134164418   0.360806643949   0.360511763146   0.360251661154   
      0.360028238139   0.359843136168   0.359697722498   0.359593075544   0.359529973715   
      0.359508887332   0.359529973715   0.359593075544   0.359697722498   0.359843136168   
      0.360028238139   0.360251661154   0.360511763146   0.360806643949   0.361134164418   
      0.361491967652   0.361877501996   0.362288045471   0.362720731236   0.363172573731   
      0.363640495074   0.364121351382   0.364611958617   0.365109117649   0.365609638241   
      0.366110361684   0.366608181882   0.367100064734   0.367583065687   0.368054345404   
      0.368511183545   0.368950990671   0.369371318356   0.369769867605   0.3701444957   
      0.370493221631   0.370814230276   0.371105875483   0.371366682253   0.371595348171   
      0.371790744246   0.371951915328   0.372078080214   0.372168631573   0.372223135778   
      0.387759981754   0.38774308259   0.38769246357   0.387608360183   0.387491165177   
      0.38734142891   0.387159859775   0.386947324628   0.386704849115   0.386433617801   
      0.386134973971   0.38581041896   0.385461610855   0.385090362411   0.384698638007   
      0.384288549478   0.383862350636   0.383422430346   0.382971304002   0.382511603275   
      0.382046064054   0.381577512519   0.381108849312   0.380643031864   0.380183054917   
      0.379731929403   0.379292659823   0.378868220388   0.378461530166   0.378075427573   
      0.377712644542   0.377375780765   0.37706727839   0.376789397588   0.376544193386   
      0.376333494168   0.376158882194   0.376021676509   0.375922918506   0.375863360433   
      0.375843457026   0.375863360433   0.375922918506   0.376021676509   0.376158882194   
      0.376333494168   0.376544193386   0.376789397588   0.37706727839   0.377375780765   
      0.377712644542   0.378075427573   0.378461530166   0.378868220388   0.379292659823   
      0.379731929403   0.380183054917   0.380643031864   0.381108849312   0.381577512519   
      0.382046064054   0.382511603275   0.382971304002   0.383422430346   0.383862350636   
      0.384288549478   0.384698638007   0.385090362411   0.385461610855   0.38581041896   
      0.386134973971   0.386433617801   0.386704849115   0.386947324628   0.387159859775   
      0.38734142891   0.387491165177   0.387608360183   0.38769246357   0.38774308259   
      0.407692194618   0.407677266663   0.40763255019   0.407558247481   0.407454696026   