<?xml version="1.0"?>
<VTKFile type="ImageData" version="0.1" byte_order="LittleEndian">
  <ImageData WholeExtent="0 79 0 19 0 19" Origin="0 0 0" Spacing="1 1 1">
  <Piece Extent="0 79 0 19 0 19">
    <PointData Scalars="density">
       <DataArray type="Float32" Name="bluedensity" NumberOfComponents="1" format="ascii">
      0   0   0   0   0   
      0   0   0   0   0   
      0   0   0   0   0   
      0   0   0   0   0   
      0   0   0   0   0   
      0   0   0   0   0   
      0   0   0   0   0   
      0   0   0   0   0   
      0   0   0   0   0   
      0   0   0   0   0   
      0   0   0   0   0   
      0   0   0   0   0   
      0   0   0   0   0   
      0   0   0   0   0   
      0   0   0   0   0   
      0   0   0   0   0   
      0   0   0   0   0   
      0   0   0   0   0   
      0   0   0   0   0   
      0   0   0   0   0   
      0   0   0   0   0   
      0   0   0   0   0   
      0   0   0   0   0   
      0   0   0   0   0   
      0   0   0   0   0   
      0   0   0   0   0   
      0   0   0   0   0   
      0   0   0   0   0   
      0   0   0   0   0   
      0   0   0   0   0   
      0   0   0   0   0   
      0   0   0   0   0   
      0   0   0   0   0   
      0   0   0   0   0   
      0   0   0   0   0   
      0   0   0   0   0   
      0   0   0   0   0   
      0   0   0   0   0   
      0   0   0   0   0   
      0   0   0   0   0   
      0   0   0   0   0   
      0   0   0   0   0   
      0   0   0   0   0   
      0   0   0   0   0   
      0   0   0   0   0   
      0   0   0   0   0   
      0   0   0   0   0   
      0   0   0   0   0   
      0   0   0   0   0   
      0   0   0   0   0   
      0   0   0   0   0   
      0   0   0   0   0   
      0   0   0   0   0   
      0   0   0   0   0   
      0   0   0   0   0   
      0   0   0   0   0   
      0   0   0   0   0   
      0   0   0   0   0   
      0   0   0   0   0   
      0   0   0   0   0   
      0   0   0   0   0   
      0   0   0   0   0   
      0   0   0   0   0   
      0   0   0   0   0   
      0   0   0   0   0   
      0   0   0   0   0   
      0   0   0   0   0   
      0   0   0   0   0   
      0   0   0   0   0   
      0   0   0   0   0   
      0   0   0   0   0   
      0   0   0   0   0   
      0   0   0   0   0   
      0   0   0   0   0   
      0   0   0   0   0   
      0   0   0   0   0   
      0   0   0   0   0   
      0   0   0   0   0   
      0   0   0   0   0   
      0   0   0   0   0   
      0   0   0   0   0   
      0   0   0   0   0   
      0   0   0   0   0   
      0   0   0   0   0   
      0   0   0   0   0   
      0   0   0   0   0   
      0   0   0   0   0   
      0   0   0   0   0   
      0   0   0   0   0   
      0   0   0   0   0   
      0   0   0   0   0   
      0   0   0   0   0   
      0   0   0   0   0   
      0   0   0   0   0   
      0   0   0   0   0   
      0   0   0   0   0   
      0   0   0   0   0   
      0   0   0   0   0   
      0   0   0   0   0   
      0   0   0   0   0   
      0   0   0   0   0   
      0   0   0   0   0   
      0   0   0   0   0   
      0   0   0   0   0   
      0   0   0   0   0   
      0   0   0   0   0   
      0   0   0   0   0   
      0   0   0   0   0   
      0   0   0   0   0   
      0   0   0   0   0   
      0   0   0   0   0   
      0   0   0   0   0   
      0   0   0   0   0   
      0   0   0   0   0   
      0   0   0   0   0   
      0   0   0   0   0   
      0   0   0   0   0   
      0   0   0   0   0   
      0   0   0   0   0   
      0   0   0   0   0   
      0   0   0   0   0   
      0   0   0   0   0   
      0   0   0   0   0   
      0   0   0   0   0   
      0   0   0   0   0   
      0   0   0   0   0   
      0   0   0   0   0   
      0   0   0   0   0   
      0   0   0   0   0   
      0   0   0   0   0   
      0   0   0   0   0   
      0   0   0   0   0   
      0   0   0   0   0   
      0   0   0   0   0   
      0   0   0   0   0   
      0   0   0   0   0   
      0   0   0   0   0   
      0   0   0   0   0   
      0   0   0   0   0   
      0   0   0   0   0   
      0   0   0   0   0   
      0   0   0   0   0   
      0   0   0   0   0   
      0   0   0   0   0   
      0   0   0   0   0   
      0   0   0   0   0   
      0   0   0   0   0   
      0   0   0   0   0   
      0   0   0   0   0   
      0   0   0   0   0   
      0   0   0   0   0   
      0   0   0   0   0   
      0   0   0   0   0   
      0   0   0   0   0   
      0   0   0   0   0   
      0   0   0   0   0   
      0   0   0   0   0   
      0   0   0   0   0   
      0   0   0   0   0   
      0   0   0   0   0   
      0   0   0   0   0   
      0   0   0   0   0   
      0   0   0   0   0   
      0   0   0   0   0   
      0   0   0   0   0   
      0   0   0   0   0   
      0   0   0   0   0   
      0   0   0   0   0   
      0   0   0   0   0   
      0   0   0   0   0   
      0   0   0   0   0   
      0   0   0   0   0   
      0   0   0   0   0   
      0   0   0   0   0   
      0   0   0   0   0   
      0   0   0   0   0   
      0   0   0   0   0   
      0   0   0   0   0   
      0   0   0   0   0   
      0   0   0   0   0   
      0   0   0   0   0   
      0   0   0   0   0   
      0   0   0   0   0   
      0   0   0   0   0   
      0   0   0   0   0   
      0   0   0   0   0   
      0   0   0   0   0   
      0   0   0   0   0   
      0   0   0   0   0   
      0   0   0   0   0   
      0   0   0   0   0   
      0   0   0   0   0   
      0   0   0   0   0   
      0   0   0   0   0   
      0   0   0   0   0   
      0   0   0   0   0   
      0   0   0   0   0   
      0   0   0   0   0   
      0   0   0   0   0   
      0   0   0   0   0   
      0   0   0   0   0   
      0   0   0   0   0   
      0   0   0   0   0   
      0   0   0   0   0   
      0   0   0   0   0   
      0   0   0   0   0   
      0   0   0   0   0   
      0   0   0   0   0   
      0   0   0   0   0   
      0   0   0   0   0   
      0   0   0   0   0   
      0   0   0   0   0   
      0   0   0   0   0   
      0   0   0   0   0   
      0   0   0   0   0   
      0   0   0   0   0   
      0   0   0   0   0   
      0   0   0   0   0   
      0   0   0   0   0   
      0   0   0   0   0   
      0   0   0   0   0   
      0   0   0   0   0   
      0   0   0   0   0   
      0   0   0   0   0   
      0   0   0   0   0   
      0   0   0   0   0   
      0   0   0   0   0   
      0   0   0   0   0   
      0   0   0   0   0   
      0   0   0   0   0   
      0   0   0   0   0   
      0   0   0   0   0   
      0   0   0   0   0   
      0   0   0   0   0   
      0   0   0   0   0   
      0   0   0   0   0   
      0   0   0   0   0   
      0   0   0   0   0   
      0   0   0   0   0   
      0   0   0   0   0   
      0   0   0   0   0   
      0   0   0   0   0   
      0   0   0   0   0   
      0   0   0   0   0   
      0   0   0   0   0   
      0   0   0   0   0   
      0   0   0   0   0   
      0   0   0   0   0   
      0   0   0   0   0   
      0   0   0   0   0   
      0   0   0   0   0   
      0   0   0   0   0   
      0   0   0   0   0   
      0   0   0   0   0   
      0   0   0   0   0   
      0   0   0   0   0   
      0   0   0   0   0   
      0   0   0   0   0   
      0   0   0   0   0   
      0   0   0   0   0   
      0   0   0   0   0   
      0   0   0   0   0   
      0   0   0   0   0   
      0   0   0   0   0   
      0   0   0   0   0   
      0   0   0   0   0   
      0   0   0   0   0   
      0   0   0   0   0   
      0   0   0   0   0   
      0   0   0   0   0   
      0   0   0   0   0   
      0   0   0   0   0   
      0   0   0   0   0   
      0   0   0   0   0   
      0   0   0   0   0   
      0   0   0   0   0   
      0   0   0   0   0   
      0   0   0   0   0   
      0   0   0   0   0   
      0   0   0   0   0   
      0   0   0   0   0   
      0   0   0   0   0   
      0   0   0   0   0   
      0   0   0   0   0   
      0   0   0   0   0   
      0   0   0   0   0   
      0   0   0   0   0   
      0   0   0   0   0   
      0   0   0   0   0   
      0   0   0   0   0   
      0   0   0   0   0   
      0   0   0   0   0   
      0   0   0   0   0   
      0   0   0   0   0   
      0   0   0   0   0   
      0   0   0   0   0   
      0   0   0   0   0   
      0   0   0   0   0   
      0   0   0   0   0   
      0   0   0   0   0   
      0   0   0   0   0   
      0   0   0   0   0   
      0   0   0   0   0   
      0   0   0   0   0   
      0   0   0   0   0   
      0   0   0   0   0   
      0   0   0   0   0   
      0   0   0   0   0   
      0   0   0   0   0   
      0   0   0   0   0   
      0   0   0   0   0   
      0   0   0   0   0   
      0   0   0   0   0   
      0   0   0   0   0   
      0   0   0   0   0   
      0   0   0   0   0   
      0   0   0   0   0   
      0   0   0   0   0   
      0   0   0   0   0   
      0   0   0   0   0   
      0   0   0   0   0   
      0   0   0   0   0   
      0   0   0   0   0   
      0   0   0   0   0   
      0   0   0   0   0   
      0   0   0   0   0   
      0   0   0   0   0   
      0   0   0   0   0   
      0   0   0   0   0   
      0   0   0   0   0   
      0   0   0   0   0   
      0   0   0   0   0   
      0   0   0   0   0   
      0   0   0   0   0   
      0   0   0   0   0   
      0   0   0   0   0   
      0.576124248194   0.576105578437   0.576049588824   0.575956339143   0.575825931808   
      0.575658516061   0.575454293976   0.575213528386   0.574936552842   0.574623783767   
      0.574275734943   0.573893034443   0.573476444095   0.573026881478   0.572545444368   
      0.572033437387   0.571492400464   0.570924138484   0.57033075128   0.569714662846   
      0.569078648406   0.568425857708   0.567759832734   0.567084517843   0.566404260386   
      0.56572379987   0.565048244003   0.564383030349   0.563733872833   0.563106692992   
      0.562507536649   0.561942477463   0.561417509628   0.560938432711   0.560510732268   
      0.560139460326   0.559829120057   0.559583559051   0.559405875351   0.559298340044   
      0.559262339557   0.559298340044   0.559405875351   0.559583559051   0.559829120057   
      0.560139460326   0.560510732268   0.560938432711   0.561417509628   0.561942477463   
      0.562507536649   0.563106692992   0.563733872833   0.564383030349   0.565048244003   
      0.56572379987   0.566404260386   0.567084517843   0.567759832734   0.568425857708   
      0.569078648406   0.569714662846   0.57033075128   0.570924138484   0.571492400464   
      0.572033437387   0.572545444368   0.573026881478   0.573476444095   0.573893034443   
      0.574275734943   0.574623783767   0.574936552842   0.575213528386   0.575454293976   
      0.575658516061   0.575825931808   0.575956339143   0.576049588824   0.576105578437   
      0.465499615363   0.46547378121   0.465396303114   0.465267255434   0.465086766328   
      0.464855024185   0.46457228679   0.464238893372   0.463855279724   0.46342199656   
      0.462939731295   0.462409333364   0.461831843132   0.461208524344   0.460540899856   
      0.459830790232   0.459080354493   0.458292132004   0.457469084161   0.456614634179   
      0.45573270293   0.454827738524   0.453904737046   0.452969251827   0.452027388637   
      0.451085784446   0.450151567831   0.449232299717   0.44833589395   0.447470518142   
      0.446644476205   0.445866075039   0.445143478759   0.444484554684   0.443896715926   
      0.443386765806   0.442960749467   0.442623817919   0.442380109383   0.442232652228   
      0.442183293011   0.442232652228   0.442380109383   0.442623817919   0.442960749467   
      0.443386765806   0.443896715926   0.444484554684   0.445143478759   0.445866075039   
      0.446644476205   0.447470518142   0.44833589395   0.449232299717   0.450151567831   
      0.451085784446   0.452027388637   0.452969251827   0.453904737046   0.454827738524   
      0.45573270293   0.456614634179   0.457469084161   0.458292132004   0.459080354493   
      0.459830790232   0.460540899856   0.461208524344   0.461831843132   0.462409333364   
      0.462939731295   0.46342199656   0.463855279724   0.464238893372   0.46457228679   
      0.464855024185   0.465086766328   0.465267255434   0.465396303114   0.46547378121   
      0.441876948511   0.441843390382   0.441742752371   0.441575145343   0.441340759878   
      0.44103987508   0.440672871092   0.440240245485   0.439742633701   0.439180833736   
      0.438555835192   0.437868852764   0.437121364108   0.436315151838   0.435452349189   
      0.434535488569   0.433567551884   0.432552021134   0.431492927348   0.430394895536   
      0.429263182974   0.428103707858   0.426923065233   0.425728527137   0.424528024167   
      0.423330106129   0.422143880179   0.42097892574   0.419845186562   0.418752841418   
      0.417712156053   0.416733320067   0.415826273226   0.415000526383   0.414264982479   
      0.413627763235   0.413096046897   0.412675922023   0.41237226169   0.412188621797   
      0.412127166347   0.412188621797   0.41237226169   0.412675922023   0.413096046897   
      0.413627763235   0.414264982479   0.415000526383   0.415826273226   0.416733320067   
      0.417712156053   0.418752841418   0.419845186562   0.42097892574   0.422143880179   
      0.423330106129   0.424528024167   0.425728527137   0.426923065233   0.428103707858   
      0.429263182974   0.430394895536   0.431492927348   0.432552021134   0.433567551884   
      0.434535488569   0.435452349189   0.436315151838   0.437121364108   0.437868852764   
      0.438555835192   0.439180833736   0.439742633701   0.440240245485   0.440672871092   
      0.44103987508   0.441340759878   0.441575145343   0.441742752371   0.441843390382   
      0.418512740846   0.418471327503   0.418347142247   0.418140351619   0.417851240619   
      0.417480223954   0.417027861964   0.416494881387   0.41588220111   0.415190963039   
      0.414422568136   0.413578717545   0.412661458549   0.411673234851   0.410616940342   
      0.409495975155   0.40831430236   0.4070765032   0.405787828316   0.404454241998   
      0.403082456179   0.401679950752   0.400254976812   0.398816539727   0.397374359476   
      0.395938806544   0.394520812643   0.393131756779   0.39178332842   0.390487370749   
      0.389255708076   0.388099962328   0.387031364037   0.386060563485   0.385197447503   
      0.384450966993   0.383828979658   0.383338111611   0.382983640812   0.382769404485   
      0.382697732042   0.382769404485   0.382983640812   0.383338111611   0.383828979658   
      0.384450966993   0.385197447503   0.386060563485   0.387031364037   0.388099962328   
      0.389255708076   0.390487370749   0.39178332842   0.393131756779   0.394520812643   
      0.395938806544   0.397374359476   0.398816539727   0.400254976812   0.401679950752   
      0.403082456179   0.404454241998   0.405787828316   0.4070765032   0.40831430236   
      0.409495975155   0.410616940342   0.411673234851   0.412661458549   0.413578717545   
      0.414422568136   0.415190963039   0.41588220111   0.416494881387   0.417027861964   
      0.417480223954   0.417851240619   0.418140351619   0.418347142247   0.418471327503   
      0.400171753185   0.400124236907   0.399981763619   0.399744562572   0.399413024611   
      0.398987715386   0.398469394013   0.397859037288   0.397157869553   0.396367398238   
      0.395489455007   0.394526242218   0.393480384201   0.392354982502   0.391153673868   
      0.389880689292   0.388540911947   0.38713993135   0.385684090666   0.384180523691   
      0.382637177889   0.381062819894   0.379467020181   0.377860114208   0.376253138259   
      0.3746577393   0.373086059555   0.371550597831   0.370064051012   0.368639140218   
      0.367288426994   0.366024125321   0.364857915251   0.363800763594   0.362862756381   
      0.362052946873   0.361379221854   0.360848187963   0.360465078894   0.360233683708   
      0.360156296017   0.360233683708   0.360465078894   0.360848187963   0.361379221854   
      0.362052946873   0.362862756381   0.363800763594   0.364857915251   0.366024125321   
      0.367288426994   0.368639140218   0.370064051012   0.371550597831   0.373086059555   
      0.3746577393   0.376253138259   0.377860114208   0.379467020181   0.381062819894   
      0.382637177889   0.384180523691   0.385684090666   0.38713993135   0.388540911947   
      0.389880689292   0.391153673868   0.392354982502   0.393480384201   0.394526242218   
      0.395489455007   0.396367398238   0.397157869553   0.397859037288   0.398469394013   
      0.398987715386   0.399413024611   0.399744562572   0.399981763619   0.400124236907   
      0.385750790863   0.385698984257   0.385543659398   0.385285104091   0.384923807801   
      0.384460476388   0.383896052858   0.383231744181   0.382469054187   0.381609822462   
      0.380656268984   0.379611044035   0.37847728257   0.37725866189   0.375959460979   
      0.374584619367   0.37313979289   0.371631403202   0.370066677532   0.368453674924   
      0.366801295197   0.365119267118   0.363418112906   0.361709087047   0.360004088678   
      0.358315548157   0.356656290002   0.355039375814   0.353477932077   0.351984968621   
      0.350573193999   0.349254833977   0.348041458806   0.346943824003   0.345971728143   
      0.345133889824   0.344437844645   0.343889861902   0.343494879877   0.343256458093   
      0.343176744788   0.343256458093   0.343494879877   0.343889861902   0.344437844645   
      0.345133889824   0.345971728143   0.346943824003   0.348041458806   0.349254833977   
      0.350573193999   0.351984968621   0.353477932077   0.355039375814   0.356656290002   
      0.358315548157   0.360004088678   0.361709087047   0.363418112906   0.365119267118   
      0.366801295197   0.368453674924   0.370066677532   0.371631403202   0.37313979289   
      0.374584619367   0.375959460979   0.37725866189   0.37847728257   0.379611044035   
      0.380656268984   0.381609822462   0.382469054187   0.383231744181   0.383896052858   
      0.384460476388   0.384923807801   0.385285104091   0.385543659398   0.385698984257   
      0.375310730406   0.375256196523   0.375092705533   0.374820592571   0.374440426757   
      0.373953027058   0.373359484581   0.372661191258   0.371859874889   0.370957640309   
      0.369957016296   0.368861007506   0.367673150417   0.366397571765   0.365039047524   
      0.3636030599   0.362095849316   0.360524457917   0.358896760782   0.357221480953   
      0.35550818453   0.353767252591   0.352009827565   0.350247732832   0.348493365829   
      0.346759566524   0.345059464729   0.34340631121   0.341813298589   0.340293378734   
      0.338859083328   0.337522353876   0.336294386352   0.335185494335   0.33420499289   
      0.333361103828   0.332660881551   0.332110157512   0.331713500604   0.331474190459   
      0.331394200796   0.331474190459   0.331713500604   0.332110157512   0.332660881551   
      0.333361103828   0.33420499289   0.335185494335   0.336294386352   0.337522353876   
      0.338859083328   0.340293378734   0.341813298589   0.34340631121   0.345059464729   
      0.346759566524   0.348493365829   0.350247732832   0.352009827565   0.353767252591   
      0.35550818453   0.357221480953   0.358896760782   0.360524457917   0.362095849316   
      0.3636030599   0.365039047524   0.366397571765   0.367673150417   0.368861007506   
      0.369957016296   0.370957640309   0.371859874889   0.372661191258   0.373359484581   
      0.373953027058   0.374440426757   0.374820592571   0.375092705533   0.375256196523   
      0.368596423425   0.368540322378   0.368372140799   0.36809224669   0.367701264464   
      0.367200091587   0.366589921881   0.365872275457   0.365049035128   0.364122489009   
      0.363095378753   0.361970952586   0.360753021894   0.359446019635   0.358055058362   
      0.35658598505   0.355045429463   0.353440842337   0.351780519437   0.350073607532   
      0.348330088651   0.34656073965   0.344777065181   0.342991203511   0.341215806274   
      0.339463894942   0.337748698462   0.336083477872   0.33448134466   0.332955080018   
      0.331516961883   0.33017860587   0.328950824806   0.327843509959   0.326865535227   
      0.326024683808   0.325327595392   0.324779730796   0.324385350311   0.324147501903   
      0.3240680157   0.324147501903   0.324385350311   0.324779730796   0.325327595392   
      0.326024683808   0.326865535227   0.327843509959   0.328950824806   0.33017860587   
      0.331516961883   0.332955080018   0.33448134466   0.336083477872   0.337748698462   
      0.339463894942   0.341215806274   0.342991203511   0.344777065181   0.34656073965   
      0.348330088651   0.350073607532   0.351780519437   0.353440842337   0.355045429463   
      0.35658598505   0.358055058362   0.359446019635   0.360753021894   0.361970952586   
      0.363095378753   0.364122489009   0.365049035128   0.365872275457   0.366589921881   
      0.367200091587   0.367701264464   0.36809224669   0.368372140799   0.368540322378   
      0.365328977127   0.365272169015   0.365101871816   0.364818470349   0.364422617322   
      0.36391525036   0.363297615821   0.362571299353   0.361738262978   0.360800888373   
      0.359762025723   0.358625047214   0.357393903814   0.356073183494   0.354668168534   
      0.353184888971   0.351630168794   0.350011661051   0.348337867865   0.346618141402   
      0.344862662217   0.343082392216   0.341289000561   0.339494762363   0.337712431681   
      0.335955092116   0.334235989918   0.332568355884   0.330965223148   0.329439248203   
      0.328002542136   0.32666651798   0.325441758649   0.324337908092   0.323363586384   
      0.322526327734   0.321832538818   0.321287473834   0.320895222063   0.320658703639   
      0.320579669672   0.320658703639   0.320895222063   0.321287473834   0.321832538818   
      0.322526327734   0.323363586384   0.324337908092   0.325441758649   0.32666651798   
      0.328002542136   0.329439248203   0.330965223148   0.332568355884   0.334235989918   
      0.335955092116   0.337712431681   0.339494762363   0.341289000561   0.343082392216   
      0.344862662217   0.346618141402   0.348337867865   0.350011661051   0.351630168794   
      0.353184888971   0.354668168534   0.356073183494   0.357393903814   0.358625047214   
      0.359762025723   0.360800888373   0.361738262978   0.362571299353   0.363297615821   
      0.36391525036   0.364422617322   0.364818470349   0.365101871816   0.365272169015   
      0.365328977127   0.365272169015   0.365101871816   0.364818470349   0.364422617322   
      0.36391525036   0.363297615821   0.362571299353   0.361738262978   0.360800888373   
      0.359762025723   0.358625047214   0.357393903814   0.356073183494   0.354668168534   
      0.353184888971   0.351630168794   0.350011661051   0.348337867865   0.346618141402   
      0.344862662217   0.343082392216   0.341289000561   0.339494762363   0.337712431681   
      0.335955092116   0.334235989918   0.332568355884   0.330965223148   0.329439248203   
      0.328002542136   0.32666651798   0.325441758649   0.324337908092   0.323363586384   
      0.322526327734   0.321832538818   0.321287473834   0.320895222063   0.320658703639   
      0.320579669672   0.320658703639   0.320895222063   0.321287473834   0.321832538818   
      0.322526327734   0.323363586384   0.324337908092   0.325441758649   0.32666651798   
      0.328002542136   0.329439248203   0.330965223148   0.332568355884   0.334235989918   
      0.335955092116   0.337712431681   0.339494762363   0.341289000561   0.343082392216   
      0.344862662217   0.346618141402   0.348337867865   0.350011661051   0.351630168794   
      0.353184888971   0.354668168534   0.356073183494   0.357393903814   0.358625047214   
      0.359762025723   0.360800888373   0.361738262978   0.362571299353   0.363297615821   
      0.36391525036   0.364422617322   0.364818470349   0.365101871816   0.365272169015   
      0.368596423425   0.368540322378   0.368372140799   0.36809224669   0.367701264464   
      0.367200091587   0.366589921881   0.365872275457   0.365049035128   0.364122489009   
      0.363095378753   0.361970952586   0.360753021894   0.359446019635   0.358055058362   
      0.35658598505   0.355045429463   0.353440842337   0.351780519437   0.350073607532   
      0.348330088651   0.34656073965   0.344777065181   0.342991203511   0.341215806274   
      0.339463894942   0.337748698462   0.336083477872   0.33448134466   0.332955080018   
      0.331516961883   0.33017860587   0.328950824806   0.327843509959   0.326865535227   
      0.326024683808   0.325327595392   0.324779730796   0.324385350311   0.324147501903   
      0.3240680157   0.324147501903   0.324385350311   0.324779730796   0.325327595392   
      0.326024683808   0.326865535227   0.327843509959   0.328950824806   0.33017860587   
      0.331516961883   0.332955080018   0.33448134466   0.336083477872   0.337748698462   
      0.339463894942   0.341215806274   0.342991203511   0.344777065181   0.34656073965   
      0.348330088651   0.350073607532   0.351780519437   0.353440842337   0.355045429463   
      0.35658598505   0.358055058362   0.359446019635   0.360753021894   0.361970952586   
      0.363095378753   0.364122489009   0.365049035128   0.365872275457   0.366589921881   
      0.367200091587   0.367701264464   0.36809224669   0.368372140799   0.368540322378   
      0.375310730406   0.375256196523   0.375092705533   0.374820592571   0.374440426757   
      0.373953027058   0.373359484581   0.372661191258   0.371859874889   0.370957640309   
      0.369957016296   0.368861007506   0.367673150417   0.366397571765   0.365039047524   
      0.3636030599   0.362095849316   0.360524457917   0.358896760782   0.357221480953   
      0.35550818453   0.353767252591   0.352009827565   0.350247732832   0.348493365829   
      0.346759566524   0.345059464729   0.34340631121   0.341813298589   0.340293378734   
      0.338859083328   0.337522353876   0.336294386352   0.335185494335   0.33420499289   
      0.333361103828   0.332660881551   0.332110157512   0.331713500604   0.331474190459   
      0.331394200796   0.331474190459   0.331713500604   0.332110157512   0.332660881551   
      0.333361103828   0.33420499289   0.335185494335   0.336294386352   0.337522353876   
      0.338859083328   0.340293378734   0.341813298589   0.34340631121   0.345059464729   
      0.346759566524   0.348493365829   0.350247732832   0.352009827565   0.353767252591   
      0.35550818453   0.357221480953   0.358896760782   0.360524457917   0.362095849316   
      0.3636030599   0.365039047524   0.366397571765   0.367673150417   0.368861007506   
      0.369957016296   0.370957640309   0.371859874889   0.372661191258   0.373359484581   
      0.373953027058   0.374440426757   0.374820592571   0.375092705533   0.375256196523   
      0.385750790863   0.385698984257   0.385543659398   0.385285104091   0.384923807801   
      0.384460476388   0.383896052858   0.383231744181   0.382469054187   0.381609822462   
      0.380656268984   0.379611044035   0.37847728257   0.37725866189   0.375959460979   
      0.374584619367   0.37313979289   0.371631403202   0.370066677532   0.368453674924   
      0.366801295197   0.365119267118   0.363418112906   0.361709087047   0.360004088678   
      0.358315548157   0.356656290002   0.355039375814   0.353477932077   0.351984968621   
      0.350573193999   0.349254833977   0.348041458806   0.346943824003   0.345971728143   
      0.345133889824   0.344437844645   0.343889861902   0.343494879877   0.343256458093   
      0.343176744788   0.343256458093   0.343494879877   0.343889861902   0.344437844645   
      0.345133889824   0.345971728143   0.346943824003   0.348041458806   0.349254833977   
      0.350573193999   0.351984968621   0.353477932077   0.355039375814   0.356656290002   
      0.358315548157   0.360004088678   0.361709087047   0.363418112906   0.365119267118   
      0.366801295197   0.368453674924   0.370066677532   0.371631403202   0.37313979289   
      0.374584619367   0.375959460979   0.37725866189   0.37847728257   0.379611044035   
      0.380656268984   0.381609822462   0.382469054187   0.383231744181   0.383896052858   
      0.384460476388   0.384923807801   0.385285104091   0.385543659398   0.385698984257   
      0.400171753185   0.400124236907   0.399981763619   0.399744562572   0.399413024611   
      0.398987715386   0.398469394013   0.397859037288   0.397157869553   0.396367398238   
      0.395489455007   0.394526242218   0.393480384201   0.392354982502   0.391153673868   
      0.389880689292   0.388540911947   0.38713993135   0.385684090666   0.384180523691   
      0.382637177889   0.381062819894   0.379467020181   0.377860114208   0.376253138259   
      0.3746577393   0.373086059555   0.371550597831   0.370064051012   0.368639140218   
      0.367288426994   0.366024125321   0.364857915251   0.363800763594   0.362862756381   
      0.362052946873   0.361379221854   0.360848187963   0.360465078894   0.360233683708   
      0.360156296017   0.360233683708   0.360465078894   0.360848187963   0.361379221854   
      0.362052946873   0.362862756381   0.363800763594   0.364857915251   0.366024125321   
      0.367288426994   0.368639140218   0.370064051012   0.371550597831   0.373086059555   
      0.3746577393   0.376253138259   0.377860114208   0.379467020181   0.381062819894   
      0.382637177889   0.384180523691   0.385684090666   0.38713993135   0.388540911947   
      0.389880689292   0.391153673868   0.392354982502   0.393480384201   0.394526242218   
      0.395489455007   0.396367398238   0.397157869553   0.397859037288   0.398469394013   
      0.398987715386   0.399413024611   0.399744562572   0.399981763619   0.400124236907   
      0.418512740846   0.418471327503   0.418347142247   0.418140351619   0.417851240619   