<?xml version="1.0"?>
<VTKFile type="ImageData" version="0.1" byte_order="LittleEndian">
  <ImageData WholeExtent="0 79 0 19 0 19" Origin="0 0 0" Spacing="1 1 1">
  <Piece Extent="0 79 0 19 0 19">
    <PointData Scalars="density">
       <DataArray type="Float32" Name="bluedensity" NumberOfComponents="1" format="ascii">
      0   0   0   0   0   
      0   0   0   0   0   
      0   0   0   0   0   
      0   0   0   0   0   
      0   0   0   0   0   
      0   0   0   0   0   
      0   0   0   0   0   
      0   0   0   0   0   
      0   0   0   0   0   
      0   0   0   0   0   
      0   0   0   0   0   
      0   0   0   0   0   
      0   0   0   0   0   
      0   0   0   0   0   
      0   0   0   0   0   
      0   0   0   0   0   
      0   0   0   0   0   
      0   0   0   0   0   
      0   0   0   0   0   
      0   0   0   0   0   
      0   0   0   0   0   
      0   0   0   0   0   
      0   0   0   0   0   
      0   0   0   0   0   
      0   0   0   0   0   
      0   0   0   0   0   
      0   0   0   0   0   
      0   0   0   0   0   
      0   0   0   0   0   
      0   0   0   0   0   
      0   0   0   0   0   
      0   0   0   0   0   
      0   0   0   0   0   
      0   0   0   0   0   
      0   0   0   0   0   
      0   0   0   0   0   
      0   0   0   0   0   
      0   0   0   0   0   
      0   0   0   0   0   
      0   0   0   0   0   
      0   0   0   0   0   
      0   0   0   0   0   
      0   0   0   0   0   
      0   0   0   0   0   
      0   0   0   0   0   
      0   0   0   0   0   
      0   0   0   0   0   
      0   0   0   0   0   
      0   0   0   0   0   
      0   0   0   0   0   
      0   0   0   0   0   
      0   0   0   0   0   
      0   0   0   0   0   
      0   0   0   0   0   
      0   0   0   0   0   
      0   0   0   0   0   
      0   0   0   0   0   
      0   0   0   0   0   
      0   0   0   0   0   
      0   0   0   0   0   
      0   0   0   0   0   
      0   0   0   0   0   
      0   0   0   0   0   
      0   0   0   0   0   
      0   0   0   0   0   
      0   0   0   0   0   
      0   0   0   0   0   
      0   0   0   0   0   
      0   0   0   0   0   
      0   0   0   0   0   
      0   0   0   0   0   
      0   0   0   0   0   
      0   0   0   0   0   
      0   0   0   0   0   
      0   0   0   0   0   
      0   0   0   0   0   
      0   0   0   0   0   
      0   0   0   0   0   
      0   0   0   0   0   
      0   0   0   0   0   
      0   0   0   0   0   
      0   0   0   0   0   
      0   0   0   0   0   
      0   0   0   0   0   
      0   0   0   0   0   
      0   0   0   0   0   
      0   0   0   0   0   
      0   0   0   0   0   
      0   0   0   0   0   
      0   0   0   0   0   
      0   0   0   0   0   
      0   0   0   0   0   
      0   0   0   0   0   
      0   0   0   0   0   
      0   0   0   0   0   
      0   0   0   0   0   
      0   0   0   0   0   
      0   0   0   0   0   
      0   0   0   0   0   
      0   0   0   0   0   
      0   0   0   0   0   
      0   0   0   0   0   
      0   0   0   0   0   
      0   0   0   0   0   
      0   0   0   0   0   
      0   0   0   0   0   
      0   0   0   0   0   
      0   0   0   0   0   
      0   0   0   0   0   
      0   0   0   0   0   
      0   0   0   0   0   
      0   0   0   0   0   
      0   0   0   0   0   
      0   0   0   0   0   
      0   0   0   0   0   
      0   0   0   0   0   
      0   0   0   0   0   
      0   0   0   0   0   
      0   0   0   0   0   
      0   0   0   0   0   
      0   0   0   0   0   
      0   0   0   0   0   
      0   0   0   0   0   
      0   0   0   0   0   
      0   0   0   0   0   
      0   0   0   0   0   
      0   0   0   0   0   
      0   0   0   0   0   
      0   0   0   0   0   
      0   0   0   0   0   
      0   0   0   0   0   
      0   0   0   0   0   
      0   0   0   0   0   
      0   0   0   0   0   
      0   0   0   0   0   
      0   0   0   0   0   
      0   0   0   0   0   
      0   0   0   0   0   
      0   0   0   0   0   
      0   0   0   0   0   
      0   0   0   0   0   
      0   0   0   0   0   
      0   0   0   0   0   
      0   0   0   0   0   
      0   0   0   0   0   
      0   0   0   0   0   
      0   0   0   0   0   
      0   0   0   0   0   
      0   0   0   0   0   
      0   0   0   0   0   
      0   0   0   0   0   
      0   0   0   0   0   
      0   0   0   0   0   
      0   0   0   0   0   
      0   0   0   0   0   
      0   0   0   0   0   
      0   0   0   0   0   
      0   0   0   0   0   
      0   0   0   0   0   
      0   0   0   0   0   
      0   0   0   0   0   
      0   0   0   0   0   
      0   0   0   0   0   
      0   0   0   0   0   
      0   0   0   0   0   
      0   0   0   0   0   
      0   0   0   0   0   
      0   0   0   0   0   
      0   0   0   0   0   
      0   0   0   0   0   
      0   0   0   0   0   
      0   0   0   0   0   
      0   0   0   0   0   
      0   0   0   0   0   
      0   0   0   0   0   
      0   0   0   0   0   
      0   0   0   0   0   
      0   0   0   0   0   
      0   0   0   0   0   
      0   0   0   0   0   
      0   0   0   0   0   
      0   0   0   0   0   
      0   0   0   0   0   
      0   0   0   0   0   
      0   0   0   0   0   
      0   0   0   0   0   
      0   0   0   0   0   
      0   0   0   0   0   
      0   0   0   0   0   
      0   0   0   0   0   
      0   0   0   0   0   
      0   0   0   0   0   
      0   0   0   0   0   
      0   0   0   0   0   
      0   0   0   0   0   
      0   0   0   0   0   
      0   0   0   0   0   
      0   0   0   0   0   
      0   0   0   0   0   
      0   0   0   0   0   
      0   0   0   0   0   
      0   0   0   0   0   
      0   0   0   0   0   
      0   0   0   0   0   
      0   0   0   0   0   
      0   0   0   0   0   
      0   0   0   0   0   
      0   0   0   0   0   
      0   0   0   0   0   
      0   0   0   0   0   
      0   0   0   0   0   
      0   0   0   0   0   
      0   0   0   0   0   
      0   0   0   0   0   
      0   0   0   0   0   
      0   0   0   0   0   
      0   0   0   0   0   
      0   0   0   0   0   
      0   0   0   0   0   
      0   0   0   0   0   
      0   0   0   0   0   
      0   0   0   0   0   
      0   0   0   0   0   
      0   0   0   0   0   
      0   0   0   0   0   
      0   0   0   0   0   
      0   0   0   0   0   
      0   0   0   0   0   
      0   0   0   0   0   
      0   0   0   0   0   
      0   0   0   0   0   
      0   0   0   0   0   
      0   0   0   0   0   
      0   0   0   0   0   
      0   0   0   0   0   
      0   0   0   0   0   
      0   0   0   0   0   
      0   0   0   0   0   
      0   0   0   0   0   
      0   0   0   0   0   
      0   0   0   0   0   
      0   0   0   0   0   
      0   0   0   0   0   
      0   0   0   0   0   
      0   0   0   0   0   
      0   0   0   0   0   
      0   0   0   0   0   
      0   0   0   0   0   
      0   0   0   0   0   
      0   0   0   0   0   
      0   0   0   0   0   
      0   0   0   0   0   
      0   0   0   0   0   
      0   0   0   0   0   
      0   0   0   0   0   
      0   0   0   0   0   
      0   0   0   0   0   
      0   0   0   0   0   
      0   0   0   0   0   
      0   0   0   0   0   
      0   0   0   0   0   
      0   0   0   0   0   
      0   0   0   0   0   
      0   0   0   0   0   
      0   0   0   0   0   
      0   0   0   0   0   
      0   0   0   0   0   
      0   0   0   0   0   
      0   0   0   0   0   
      0   0   0   0   0   
      0   0   0   0   0   
      0   0   0   0   0   
      0   0   0   0   0   
      0   0   0   0   0   
      0   0   0   0   0   
      0   0   0   0   0   
      0   0   0   0   0   
      0   0   0   0   0   
      0   0   0   0   0   
      0   0   0   0   0   
      0   0   0   0   0   
      0   0   0   0   0   
      0   0   0   0   0   
      0   0   0   0   0   
      0   0   0   0   0   
      0   0   0   0   0   
      0   0   0   0   0   
      0   0   0   0   0   
      0   0   0   0   0   
      0   0   0   0   0   
      0   0   0   0   0   
      0   0   0   0   0   
      0   0   0   0   0   
      0   0   0   0   0   
      0   0   0   0   0   
      0   0   0   0   0   
      0   0   0   0   0   
      0   0   0   0   0   
      0   0   0   0   0   
      0   0   0   0   0   
      0   0   0   0   0   
      0   0   0   0   0   
      0   0   0   0   0   
      0   0   0   0   0   
      0   0   0   0   0   
      0   0   0   0   0   
      0   0   0   0   0   
      0   0   0   0   0   
      0   0   0   0   0   
      0   0   0   0   0   
      0   0   0   0   0   
      0   0   0   0   0   
      0   0   0   0   0   
      0   0   0   0   0   
      0   0   0   0   0   
      0   0   0   0   0   
      0   0   0   0   0   
      0   0   0   0   0   
      0   0   0   0   0   
      0   0   0   0   0   
      0   0   0   0   0   
      0   0   0   0   0   
      0   0   0   0   0   
      0   0   0   0   0   
      0   0   0   0   0   
      0   0   0   0   0   
      0   0   0   0   0   
      0   0   0   0   0   
      0   0   0   0   0   
      0   0   0   0   0   
      0   0   0   0   0   
      0   0   0   0   0   
      0   0   0   0   0   
      0   0   0   0   0   
      0   0   0   0   0   
      0   0   0   0   0   
      0.570869118099   0.570863861995   0.57084811866   0.570821963029   0.570785519996   
      0.570738964419   0.570682521098   0.570616464722   0.570541119761   0.570456860266   
      0.570364109561   0.570263339783   0.570155071226   0.57003987147   0.569918354218   
      0.569791177832   0.569659043505   0.569522693018   0.569382906073   0.569240497134   
      0.569096311768   0.568951222457   0.568806123871   0.568661927601   0.568519556367   
      0.568379937719   0.568243997287   0.568112651616   0.56798680068   0.567867320131   
      0.567755053421   0.567650803869   0.56755532682   0.567469322016   0.567393426307   
      0.567328206838   0.567274154841   0.567231680145   0.567201106526   0.567182667983   
      0.567176506018   0.567182667983   0.567201106526   0.567231680145   0.567274154841   
      0.567328206838   0.567393426307   0.567469322016   0.56755532682   0.567650803869   
      0.567755053421   0.567867320131   0.56798680068   0.568112651616   0.568243997287   
      0.568379937719   0.568519556367   0.568661927601   0.568806123871   0.568951222457   
      0.569096311768   0.569240497134   0.569382906073   0.569522693018   0.569659043505   
      0.569791177832   0.569918354218   0.57003987147   0.570155071226   0.570263339783   
      0.570364109561   0.570456860266   0.570541119761   0.570616464722   0.570682521098   
      0.570738964419   0.570785519996   0.570821963029   0.57084811866   0.570863861995   
      0.458043963214   0.458036669512   0.45801482309   0.457978528007   0.457927957707   
      0.45786335503   0.457785032192   0.457693370724   0.457588821332   0.457471903631   
      0.457343205724   0.45720338356   0.457053160034   0.456893323754   0.456724727422   
      0.45654828577   0.456364972985   0.456175819566   0.455981908564   0.455784371145   
      0.455584381456   0.45538315075   0.455181920767   0.454981956374   0.454784537477   
      0.45459095025   0.454402477745   0.454220389945   0.454045933391   0.45388032047   
      0.453724718524   0.45358023893   0.453447926306   0.453328748032   0.453223584251   
      0.453133218535   0.453058329393   0.452999482769   0.452957125687   0.452931581174   
      0.45292304455   0.452931581174   0.452957125687   0.452999482769   0.453058329393   
      0.453133218535   0.453223584251   0.453328748032   0.453447926306   0.45358023893   
      0.453724718524   0.45388032047   0.454045933391   0.454220389945   0.454402477745   
      0.45459095025   0.454784537477   0.454981956374   0.455181920767   0.45538315075   
      0.455584381456   0.455784371145   0.455981908564   0.456175819566   0.456364972985   
      0.45654828577   0.456724727422   0.456893323754   0.457053160034   0.45720338356   
      0.457343205724   0.457471903631   0.457588821332   0.457693370724   0.457785032192   
      0.45786335503   0.457927957707   0.457978528007   0.45801482309   0.458036669512   
      0.432112411399   0.432103021352   0.432074896501   0.432028172715   0.431963076412   
      0.43187992451   0.431779124317   0.431661173333   0.431526658928   0.43137625784   
      0.431210735443   0.431030944713   0.430837824835   0.430632399371   0.430415773917   
      0.430189133177   0.42995373737   0.429710917922   0.429462072354   0.429208658337   
      0.428952186861   0.428694214491   0.42843633471   0.428180168359   0.427927353196   
      0.427679532651   0.427438343846   0.427205404979   0.426982302227   0.426770576286   
      0.426571708753   0.426387108508   0.426218098329   0.426065901916   0.425931631573   
      0.425816276723   0.425720693492   0.425645595527   0.425591546238   0.425558952594   
      0.425548060609   0.425558952594   0.425591546238   0.425645595527   0.425720693492   
      0.425816276723   0.425931631573   0.426065901916   0.426218098329   0.426387108508   
      0.426571708753   0.426770576286   0.426982302227   0.427205404979   0.427438343846   
      0.427679532651   0.427927353196   0.428180168359   0.42843633471   0.428694214491   
      0.428952186861   0.429208658337   0.429462072354   0.429710917922   0.42995373737   
      0.430189133177   0.430415773917   0.430632399371   0.430837824835   0.431030944713   
      0.431210735443   0.43137625784   0.431526658928   0.431661173333   0.431779124317   
      0.43187992451   0.431963076412   0.432028172715   0.432074896501   0.432103021352   
      0.406437416887   0.406425987526   0.406391755647   0.40633488983   0.406255670934   
      0.406154491915   0.406031857536   0.405888383919   0.405724797909   0.405541936174   
      0.405340743983   0.405122273593   0.404887682155   0.404638229074   0.404375272716   
      0.404100266403   0.403814753601   0.40352036223   0.403218798039   0.402911836987   
      0.402601316596   0.402289126259   0.401977196512   0.401667487278   0.401361975165   
      0.401062639864   0.400771449779   0.400490347   0.40022123179   0.399965946753   
      0.399726260899   0.399503853797   0.399300300066   0.399117054424   0.398955437532   
      0.398816622868   0.398701624839   0.398611288347   0.398546279984   0.398507081013   
      0.398493982259   0.398507081013   0.398546279984   0.398611288347   0.398701624839   
      0.398816622868   0.398955437532   0.399117054424   0.399300300066   0.399503853797   
      0.399726260899   0.399965946753   0.40022123179   0.400490347   0.400771449779   
      0.401062639864   0.401361975165   0.401667487278   0.401977196512   0.402289126259   
      0.402601316596   0.402911836987   0.403218798039   0.40352036223   0.403814753601   
      0.404100266403   0.404375272716   0.404638229074   0.404887682155   0.405122273593   
      0.405340743983   0.405541936174   0.405724797909   0.405888383919   0.406031857536   
      0.406154491915   0.406255670934   0.40633488983   0.406391755647   0.406425987526   
      0.386337517109   0.386324602165   0.386285922157   0.386221671495   0.386132173976   
      0.386017882436   0.385879378223   0.385717370437   0.385532694901   0.385326312789   
      0.385099308841   0.384852889095   0.384588378039   0.384307215116   0.384010950477   
      0.383701239916   0.383379838887   0.383048595564   0.382709442852   0.382364389336   
      0.382015509117   0.381664930555   0.381314823922   0.38096738801   0.380624835775   
      0.380289379108   0.379963212856   0.379648498249   0.3793473459   0.379061798584   
      0.378793813992   0.378545247705   0.378317836607   0.378113182975   0.377932739496   
      0.377777795419   0.377649464066   0.377548671911   0.377476149378   0.377432423528   
      0.377417812749   0.377432423528   0.377476149378   0.377548671911   0.377649464066   
      0.377777795419   0.377932739496   0.378113182975   0.378317836607   0.378545247705   
      0.378793813992   0.379061798584   0.3793473459   0.379648498249   0.379963212856   
      0.380289379108   0.380624835775   0.38096738801   0.381314823922   0.381664930555   
      0.382015509117   0.382364389336   0.382709442852   0.383048595564   0.383379838887   
      0.383701239916   0.384010950477   0.384307215116   0.384588378039   0.384852889095   
      0.385099308841   0.385326312789   0.385532694901   0.385717370437   0.385879378223   
      0.386017882436   0.386132173976   0.386221671495   0.386285922157   0.386324602165   
      0.370708446945   0.370694563898   0.370652985758   0.370583925435   0.370487737447   
      0.3703649174   0.370216101219   0.370042064076   0.369843718972   0.369622114903   
      0.369378434536   0.369113991315   0.368830225929   0.368528702028   0.368211101137   
      0.367879216663   0.367534946935   0.367180287214   0.366817320621   0.366448207959   
      0.36607517641   0.365700507126   0.365326521745   0.36495556789   0.364590003755   
      0.364232181866   0.363884432185   0.363549044695   0.363228251673   0.362924209831   
      0.362638982556   0.362374522465   0.362132654514   0.361915059872   0.361723260805   
      0.361558606769   0.361422261915   0.361315194188   0.361238166186   0.3611917279   
      0.36117621145   0.3611917279   0.361238166186   0.361315194188   0.361422261915   
      0.361558606769   0.361723260805   0.361915059872   0.362132654514   0.362374522465   
      0.362638982556   0.362924209831   0.363228251673   0.363549044695   0.363884432185   
      0.364232181866   0.364590003755   0.36495556789   0.365326521745   0.365700507126   
      0.36607517641   0.366448207959   0.366817320621   0.367180287214   0.367534946935   
      0.367879216663   0.368211101137   0.368528702028   0.368830225929   0.369113991315   
      0.369378434536   0.369622114903   0.369843718972   0.370042064076   0.370216101219   
      0.3703649174   0.370487737447   0.370583925435   0.370652985758   0.370694563898   
      0.359521169474   0.359506726185   0.359463471338   0.359391629867   0.359291576228   
      0.359163833739   0.359009073593   0.358828113527   0.358621916067   0.358391586309   
      0.358138369142   0.357863645847   0.357568929995   0.357255862543   0.35692620608   
      0.356581838116   0.356224743374   0.355857005025   0.355480794823   0.355098362127   
      0.354712021822   0.354324141136   0.353937125437   0.353553403068   0.353175409314   
      0.352805569648   0.35244628239   0.352099900954   0.351768715871   0.351454936797   
      0.3511606747   0.35088792447   0.350638548148   0.350414259003   0.350216606656   
      0.350046963457   0.349906512283   0.349796235933   0.34971690824   0.349669087048   
      0.349653109118   0.349669087048   0.34971690824   0.349796235933   0.349906512283   
      0.350046963457   0.350216606656   0.350414259003   0.350638548148   0.35088792447   
      0.3511606747   0.351454936797   0.351768715871   0.352099900954   0.35244628239   
      0.352805569648   0.353175409314   0.353553403068   0.353937125437   0.354324141136   
      0.354712021822   0.355098362127   0.355480794823   0.355857005025   0.356224743374   
      0.356581838116   0.35692620608   0.357255862543   0.357568929995   0.357863645847   
      0.358138369142   0.358391586309   0.358621916067   0.358828113527   0.359009073593   
      0.359163833739   0.359291576228   0.359391629867   0.359463471338   0.359506726185   
      0.352389645953   0.352374912194   0.352330788298   0.352257506256   0.35215545222   
      0.352025165726   0.351867338566   0.35168281325   0.351472581031   0.351237779391   
      0.350979688953   0.350699729718   0.350399456565   0.35008055392   0.349744829537   
      0.34939420731   0.349030719058   0.348656495252   0.348273754637   0.347884792756   
      0.347491969376   0.347097694864   0.346704415561   0.346314598249   0.345930713824   
      0.345555220292   0.345190545271   0.344839068143   0.344503102071   0.344184876065   
      0.343886517319   0.343610034008   0.343357298786   0.343130033153   0.342929792911   
      0.342757954878   0.342615705028   0.342504028191   0.342423699466   0.342375277417   
      0.342359099165   0.342375277417   0.342423699466   0.342504028191   0.342615705028   
      0.342757954878   0.342929792911   0.343130033153   0.343357298786   0.343610034008   
      0.343886517319   0.344184876065   0.344503102071   0.344839068143   0.345190545271   
      0.345555220292   0.345930713824   0.346314598249   0.346704415561   0.347097694864   
      0.347491969376   0.347884792756   0.348273754637   0.348656495252   0.349030719058   
      0.34939420731   0.349744829537   0.35008055392   0.350399456565   0.350699729718   
      0.350979688953   0.351237779391   0.351472581031   0.35168281325   0.351867338566   
      0.352025165726   0.35215545222   0.352257506256   0.352330788298   0.352374912194   
      0.348938333543   0.348923479783   0.348878996966   0.34880512032   0.348702241353   
      0.348570907019   0.348411818514   0.348225829634   0.348013944675   0.347777315778   
      0.34751723967   0.347235153722   0.346932631235   0.346611375902   0.346273215345   
      0.345920093685   0.345554063084   0.34517727421   0.344791965616   0.344400452015   
      0.344005111486   0.343608371627   0.343212694756   0.342820562213   0.342434457914   
      0.34205685126   0.341690179598   0.341336830367   0.340999123161   0.340679291871   
      0.340379467137   0.34010165931   0.339847742113   0.339619437217   0.339418299906   
      0.339245706006   0.339102840229   0.338990686077   0.338910017419   0.338861391835   
      0.338845145811   0.338861391835   0.338910017419   0.338990686077   0.339102840229   
      0.339245706006   0.339418299906   0.339619437217   0.339847742113   0.34010165931   
      0.340379467137   0.340679291871   0.340999123161   0.341336830367   0.341690179598   
      0.34205685126   0.342434457914   0.342820562213   0.343212694756   0.343608371627   
      0.344005111486   0.344400452015   0.344791965616   0.34517727421   0.345554063084   
      0.345920093685   0.346273215345   0.346611375902   0.346932631235   0.347235153722   
      0.34751723967   0.347777315778   0.348013944675   0.348225829634   0.348411818514   
      0.348570907019   0.348702241353   0.34880512032   0.348878996966   0.348923479783   
      0.348938333543   0.348923479783   0.348878996966   0.34880512032   0.348702241353   
      0.348570907019   0.348411818514   0.348225829634   0.348013944675   0.347777315778   
      0.34751723967   0.347235153722   0.346932631235   0.346611375902   0.346273215345   
      0.345920093685   0.345554063084   0.34517727421   0.344791965616   0.344400452015   
      0.344005111486   0.343608371627   0.343212694756   0.342820562213   0.342434457914   
      0.34205685126   0.341690179598   0.341336830367   0.340999123161   0.340679291871   
      0.340379467137   0.34010165931   0.339847742113   0.339619437217   0.339418299906   
      0.339245706006   0.339102840229   0.338990686077   0.338910017419   0.338861391835   
      0.338845145811   0.338861391835   0.338910017419   0.338990686077   0.339102840229   
      0.339245706006   0.339418299906   0.339619437217   0.339847742113   0.34010165931   
      0.340379467137   0.340679291871   0.340999123161   0.341336830367   0.341690179598   
      0.34205685126   0.342434457914   0.342820562213   0.343212694756   0.343608371627   
      0.344005111486   0.344400452015   0.344791965616   0.34517727421   0.345554063084   
      0.345920093685   0.346273215345   0.346611375902   0.346932631235   0.347235153722   
      0.34751723967   0.347777315778   0.348013944675   0.348225829634   0.348411818514   
      0.348570907019   0.348702241353   0.34880512032   0.348878996966   0.348923479783   
      0.352389645953   0.352374912194   0.352330788298   0.352257506256   0.35215545222   
      0.352025165726   0.351867338566   0.35168281325   0.351472581031   0.351237779391   
      0.350979688953   0.350699729718   0.350399456565   0.35008055392   0.349744829537   
      0.34939420731   0.349030719058   0.348656495252   0.348273754637   0.347884792756   
      0.347491969376   0.347097694864   0.346704415561   0.346314598249   0.345930713824   
      0.345555220292   0.345190545271   0.344839068143   0.344503102071   0.344184876065   
      0.343886517319   0.343610034008   0.343357298786   0.343130033153   0.342929792911   
      0.342757954878   0.342615705028   0.342504028191   0.342423699466   0.342375277417   
      0.342359099165   0.342375277417   0.342423699466   0.342504028191   0.342615705028   
      0.342757954878   0.342929792911   0.343130033153   0.343357298786   0.343610034008   
      0.343886517319   0.344184876065   0.344503102071   0.344839068143   0.345190545271   
      0.345555220292   0.345930713824   0.346314598249   0.346704415561   0.347097694864   
      0.347491969376   0.347884792756   0.348273754637   0.348656495252   0.349030719058   
      0.34939420731   0.349744829537   0.35008055392   0.350399456565   0.350699729718   
      0.350979688953   0.351237779391   0.351472581031   0.35168281325   0.351867338566   
      0.352025165726   0.35215545222   0.352257506256   0.352330788298   0.352374912194   
      0.359521169474   0.359506726185   0.359463471338   0.359391629867   0.359291576228   
      0.359163833739   0.359009073593   0.358828113527   0.358621916067   0.358391586309   
      0.358138369142   0.357863645847   0.357568929995   0.357255862543   0.35692620608   
      0.356581838116   0.356224743374   0.355857005025   0.355480794823   0.355098362127   
      0.354712021822   0.354324141136   0.353937125437   0.353553403068   0.353175409314   
      0.352805569648   0.35244628239   0.352099900954   0.351768715871   0.351454936797   
      0.3511606747   0.35088792447   0.350638548148   0.350414259003   0.350216606656   
      0.350046963457   0.349906512283   0.349796235933   0.34971690824   0.349669087048   
      0.349653109118   0.349669087048   0.34971690824   0.349796235933   0.349906512283   
      0.350046963457   0.350216606656   0.350414259003   0.350638548148   0.35088792447   
      0.3511606747   0.351454936797   0.351768715871   0.352099900954   0.35244628239   
      0.352805569648   0.353175409314   0.353553403068   0.353937125437   0.354324141136   
      0.354712021822   0.355098362127   0.355480794823   0.355857005025   0.356224743374   
      0.356581838116   0.35692620608   0.357255862543   0.357568929995   0.357863645847   
      0.358138369142   0.358391586309   0.358621916067   0.358828113527   0.359009073593   
      0.359163833739   0.359291576228   0.359391629867   0.359463471338   0.359506726185   
      0.370708446945   0.370694563898   0.370652985758   0.370583925435   0.370487737447   
      0.3703649174   0.370216101219   0.370042064076   0.369843718972   0.369622114903   
      0.369378434536   0.369113991315   0.368830225929   0.368528702028   0.368211101137   
      0.367879216663   0.367534946935   0.367180287214   0.366817320621   0.366448207959   
      0.36607517641   0.365700507126   0.365326521745   0.36495556789   0.364590003755   
      0.364232181866   0.363884432185   0.363549044695   0.363228251673   0.362924209831   
      0.362638982556   0.362374522465   0.362132654514   0.361915059872   0.361723260805   
      0.361558606769   0.361422261915   0.361315194188   0.361238166186   0.3611917279   
      0.36117621145   0.3611917279   0.361238166186   0.361315194188   0.361422261915   
      0.361558606769   0.361723260805   0.361915059872   0.362132654514   0.362374522465   
      0.362638982556   0.362924209831   0.363228251673   0.363549044695   0.363884432185   
      0.364232181866   0.364590003755   0.36495556789   0.365326521745   0.365700507126   
      0.36607517641   0.366448207959   0.366817320621   0.367180287214   0.367534946935   
      0.367879216663   0.368211101137   0.368528702028   0.368830225929   0.369113991315   
      0.369378434536   0.369622114903   0.369843718972   0.370042064076   0.370216101219   
      0.3703649174   0.370487737447   0.370583925435   0.370652985758   0.370694563898   
      0.386337517109   0.386324602165   0.386285922157   0.386221671495   0.386132173976   
      0.386017882436   0.385879378223   0.385717370437   0.385532694901   0.385326312789   
      0.385099308841   0.384852889095   0.384588378039   0.384307215116   0.384010950477   
      0.383701239916   0.383379838887   0.383048595564   0.382709442852   0.382364389336   
      0.382015509117   0.381664930555   0.381314823922   0.38096738801   0.380624835775   
      0.380289379108   0.379963212856   0.379648498249   0.3793473459   0.379061798584   
      0.378793813992   0.378545247705   0.378317836607   0.378113182975   0.377932739496   
      0.377777795419   0.377649464066   0.377548671911   0.377476149378   0.377432423528   
      0.377417812749   0.377432423528   0.377476149378   0.377548671911   0.377649464066   
      0.377777795419   0.377932739496   0.378113182975   0.378317836607   0.378545247705   
      0.378793813992   0.379061798584   0.3793473459   0.379648498249   0.379963212856   
      0.380289379108   0.380624835775   0.38096738801   0.381314823922   0.381664930555   
      0.382015509117   0.382364389336   0.382709442852   0.383048595564   0.383379838887   
      0.383701239916   0.384010950477   0.384307215116   0.384588378039   0.384852889095   
      0.385099308841   0.385326312789   0.385532694901   0.385717370437   0.385879378223   
      0.386017882436   0.386132173976   0.386221671495   0.386285922157   0.386324602165   
      0.406437416887   0.406425987526   0.406391755647   0.40633488983   0.406255670934   