<?xml version="1.0"?>
<VTKFile type="ImageData" version="0.1" byte_order="LittleEndian">
  <ImageData WholeExtent="0 79 0 19 0 19" Origin="0 0 0" Spacing="1 1 1">
  <Piece Extent="0 79 0 19 0 19">
    <PointData Scalars="density">
       <DataArray type="Float32" Name="bluedensity" NumberOfComponents="1" format="ascii">
      0   0   0   0   0   
      0   0   0   0   0   
      0   0   0   0   0   
      0   0   0   0   0   
      0   0   0   0   0   
      0   0   0   0   0   
      0   0   0   0   0   
      0   0   0   0   0   
      0   0   0   0   0   
      0   0   0   0   0   
      0   0   0   0   0   
      0   0   0   0   0   
      0   0   0   0   0   
      0   0   0   0   0   
      0   0   0   0   0   
      0   0   0   0   0   
      0   0   0   0   0   
      0   0   0   0   0   
      0   0   0   0   0   
      0   0   0   0   0   
      0   0   0   0   0   
      0   0   0   0   0   
      0   0   0   0   0   
      0   0   0   0   0   
      0   0   0   0   0   
      0   0   0   0   0   
      0   0   0   0   0   
      0   0   0   0   0   
      0   0   0   0   0   
      0   0   0   0   0   
      0   0   0   0   0   
      0   0   0   0   0   
      0   0   0   0   0   
      0   0   0   0   0   
      0   0   0   0   0   
      0   0   0   0   0   
      0   0   0   0   0   
      0   0   0   0   0   
      0   0   0   0   0   
      0   0   0   0   0   
      0   0   0   0   0   
      0   0   0   0   0   
      0   0   0   0   0   
      0   0   0   0   0   
      0   0   0   0   0   
      0   0   0   0   0   
      0   0   0   0   0   
      0   0   0   0   0   
      0   0   0   0   0   
      0   0   0   0   0   
      0   0   0   0   0   
      0   0   0   0   0   
      0   0   0   0   0   
      0   0   0   0   0   
      0   0   0   0   0   
      0   0   0   0   0   
      0   0   0   0   0   
      0   0   0   0   0   
      0   0   0   0   0   
      0   0   0   0   0   
      0   0   0   0   0   
      0   0   0   0   0   
      0   0   0   0   0   
      0   0   0   0   0   
      0   0   0   0   0   
      0   0   0   0   0   
      0   0   0   0   0   
      0   0   0   0   0   
      0   0   0   0   0   
      0   0   0   0   0   
      0   0   0   0   0   
      0   0   0   0   0   
      0   0   0   0   0   
      0   0   0   0   0   
      0   0   0   0   0   
      0   0   0   0   0   
      0   0   0   0   0   
      0   0   0   0   0   
      0   0   0   0   0   
      0   0   0   0   0   
      0   0   0   0   0   
      0   0   0   0   0   
      0   0   0   0   0   
      0   0   0   0   0   
      0   0   0   0   0   
      0   0   0   0   0   
      0   0   0   0   0   
      0   0   0   0   0   
      0   0   0   0   0   
      0   0   0   0   0   
      0   0   0   0   0   
      0   0   0   0   0   
      0   0   0   0   0   
      0   0   0   0   0   
      0   0   0   0   0   
      0   0   0   0   0   
      0   0   0   0   0   
      0   0   0   0   0   
      0   0   0   0   0   
      0   0   0   0   0   
      0   0   0   0   0   
      0   0   0   0   0   
      0   0   0   0   0   
      0   0   0   0   0   
      0   0   0   0   0   
      0   0   0   0   0   
      0   0   0   0   0   
      0   0   0   0   0   
      0   0   0   0   0   
      0   0   0   0   0   
      0   0   0   0   0   
      0   0   0   0   0   
      0   0   0   0   0   
      0   0   0   0   0   
      0   0   0   0   0   
      0   0   0   0   0   
      0   0   0   0   0   
      0   0   0   0   0   
      0   0   0   0   0   
      0   0   0   0   0   
      0   0   0   0   0   
      0   0   0   0   0   
      0   0   0   0   0   
      0   0   0   0   0   
      0   0   0   0   0   
      0   0   0   0   0   
      0   0   0   0   0   
      0   0   0   0   0   
      0   0   0   0   0   
      0   0   0   0   0   
      0   0   0   0   0   
      0   0   0   0   0   
      0   0   0   0   0   
      0   0   0   0   0   
      0   0   0   0   0   
      0   0   0   0   0   
      0   0   0   0   0   
      0   0   0   0   0   
      0   0   0   0   0   
      0   0   0   0   0   
      0   0   0   0   0   
      0   0   0   0   0   
      0   0   0   0   0   
      0   0   0   0   0   
      0   0   0   0   0   
      0   0   0   0   0   
      0   0   0   0   0   
      0   0   0   0   0   
      0   0   0   0   0   
      0   0   0   0   0   
      0   0   0   0   0   
      0   0   0   0   0   
      0   0   0   0   0   
      0   0   0   0   0   
      0   0   0   0   0   
      0   0   0   0   0   
      0   0   0   0   0   
      0   0   0   0   0   
      0   0   0   0   0   
      0   0   0   0   0   
      0   0   0   0   0   
      0   0   0   0   0   
      0   0   0   0   0   
      0   0   0   0   0   
      0   0   0   0   0   
      0   0   0   0   0   
      0   0   0   0   0   
      0   0   0   0   0   
      0   0   0   0   0   
      0   0   0   0   0   
      0   0   0   0   0   
      0   0   0   0   0   
      0   0   0   0   0   
      0   0   0   0   0   
      0   0   0   0   0   
      0   0   0   0   0   
      0   0   0   0   0   
      0   0   0   0   0   
      0   0   0   0   0   
      0   0   0   0   0   
      0   0   0   0   0   
      0   0   0   0   0   
      0   0   0   0   0   
      0   0   0   0   0   
      0   0   0   0   0   
      0   0   0   0   0   
      0   0   0   0   0   
      0   0   0   0   0   
      0   0   0   0   0   
      0   0   0   0   0   
      0   0   0   0   0   
      0   0   0   0   0   
      0   0   0   0   0   
      0   0   0   0   0   
      0   0   0   0   0   
      0   0   0   0   0   
      0   0   0   0   0   
      0   0   0   0   0   
      0   0   0   0   0   
      0   0   0   0   0   
      0   0   0   0   0   
      0   0   0   0   0   
      0   0   0   0   0   
      0   0   0   0   0   
      0   0   0   0   0   
      0   0   0   0   0   
      0   0   0   0   0   
      0   0   0   0   0   
      0   0   0   0   0   
      0   0   0   0   0   
      0   0   0   0   0   
      0   0   0   0   0   
      0   0   0   0   0   
      0   0   0   0   0   
      0   0   0   0   0   
      0   0   0   0   0   
      0   0   0   0   0   
      0   0   0   0   0   
      0   0   0   0   0   
      0   0   0   0   0   
      0   0   0   0   0   
      0   0   0   0   0   
      0   0   0   0   0   
      0   0   0   0   0   
      0   0   0   0   0   
      0   0   0   0   0   
      0   0   0   0   0   
      0   0   0   0   0   
      0   0   0   0   0   
      0   0   0   0   0   
      0   0   0   0   0   
      0   0   0   0   0   
      0   0   0   0   0   
      0   0   0   0   0   
      0   0   0   0   0   
      0   0   0   0   0   
      0   0   0   0   0   
      0   0   0   0   0   
      0   0   0   0   0   
      0   0   0   0   0   
      0   0   0   0   0   
      0   0   0   0   0   
      0   0   0   0   0   
      0   0   0   0   0   
      0   0   0   0   0   
      0   0   0   0   0   
      0   0   0   0   0   
      0   0   0   0   0   
      0   0   0   0   0   
      0   0   0   0   0   
      0   0   0   0   0   
      0   0   0   0   0   
      0   0   0   0   0   
      0   0   0   0   0   
      0   0   0   0   0   
      0   0   0   0   0   
      0   0   0   0   0   
      0   0   0   0   0   
      0   0   0   0   0   
      0   0   0   0   0   
      0   0   0   0   0   
      0   0   0   0   0   
      0   0   0   0   0   
      0   0   0   0   0   
      0   0   0   0   0   
      0   0   0   0   0   
      0   0   0   0   0   
      0   0   0   0   0   
      0   0   0   0   0   
      0   0   0   0   0   
      0   0   0   0   0   
      0   0   0   0   0   
      0   0   0   0   0   
      0   0   0   0   0   
      0   0   0   0   0   
      0   0   0   0   0   
      0   0   0   0   0   
      0   0   0   0   0   
      0   0   0   0   0   
      0   0   0   0   0   
      0   0   0   0   0   
      0   0   0   0   0   
      0   0   0   0   0   
      0   0   0   0   0   
      0   0   0   0   0   
      0   0   0   0   0   
      0   0   0   0   0   
      0   0   0   0   0   
      0   0   0   0   0   
      0   0   0   0   0   
      0   0   0   0   0   
      0   0   0   0   0   
      0   0   0   0   0   
      0   0   0   0   0   
      0   0   0   0   0   
      0   0   0   0   0   
      0   0   0   0   0   
      0   0   0   0   0   
      0   0   0   0   0   
      0   0   0   0   0   
      0   0   0   0   0   
      0   0   0   0   0   
      0   0   0   0   0   
      0   0   0   0   0   
      0   0   0   0   0   
      0   0   0   0   0   
      0   0   0   0   0   
      0   0   0   0   0   
      0   0   0   0   0   
      0   0   0   0   0   
      0   0   0   0   0   
      0   0   0   0   0   
      0   0   0   0   0   
      0   0   0   0   0   
      0   0   0   0   0   
      0   0   0   0   0   
      0   0   0   0   0   
      0   0   0   0   0   
      0   0   0   0   0   
      0   0   0   0   0   
      0   0   0   0   0   
      0   0   0   0   0   
      0   0   0   0   0   
      0   0   0   0   0   
      0   0   0   0   0   
      0   0   0   0   0   
      0   0   0   0   0   
      0   0   0   0   0   
      0   0   0   0   0   
      0   0   0   0   0   
      0   0   0   0   0   
      0   0   0   0   0   
      0   0   0   0   0   
      0   0   0   0   0   
      0   0   0   0   0   
      0   0   0   0   0   
      0.576760012031   0.576739871134   0.576679462137   0.576578826981   0.576438038459   
      0.576257204644   0.576036475254   0.575776050135   0.575476190057   0.575137230059   
      0.574759595593   0.574343821695   0.573890575409   0.573400681579   0.572875152052   
      0.572315218154   0.571722366094   0.571098374687   0.570445354452   0.569765786823   
      0.569062561776   0.568339011874   0.567598940337   0.566846640574   0.566086904442   
      0.565325016598   0.564566732526   0.563818238332   0.563086091024   0.562377138932   
      0.561698422863   0.561057059729   0.560460111432   0.559914442842   0.559426573506   
      0.559002528398   0.55864769333   0.558366680737   0.558163211266   0.558040016069   
      0.557998763896   0.558040016069   0.558163211266   0.558366680737   0.55864769333   
      0.559002528398   0.559426573506   0.559914442842   0.560460111432   0.561057059729   
      0.561698422863   0.562377138932   0.563086091024   0.563818238332   0.564566732526   
      0.565325016598   0.566086904442   0.566846640574   0.567598940337   0.568339011874   
      0.569062561776   0.569765786823   0.570445354452   0.571098374687   0.571722366094   
      0.572315218154   0.572875152052   0.573400681579   0.573890575409   0.574343821695   
      0.574759595593   0.575137230059   0.575476190057   0.575776050135   0.576036475254   
      0.576257204644   0.576438038459   0.576578826981   0.576679462137   0.576739871134   
      0.466419221861   0.466391374648   0.466307848218   0.466168689526   0.465973981313   
      0.465723848948   0.465418470263   0.465058088601   0.464643029378   0.46417372046   
      0.463650716687   0.463074728827   0.4624466572   0.461767630059   0.461039046654   
      0.460262624647   0.459440451186   0.458575036598   0.457669369156   0.456726968895   
      0.455751937968   0.454749004536   0.453723556864   0.452681664041   0.45163007977   
      0.450576225885   0.4495281528   0.448494474887   0.447484279821   0.446507012216   
      0.445572333194   0.444689958945   0.4438694826   0.443120184825   0.442450839397   
      0.44186952048   0.441383418482   0.440998671188   0.440720216314   0.44055167088   
      0.440495241796   0.44055167088   0.440720216314   0.440998671188   0.441383418482   
      0.44186952048   0.442450839397   0.443120184825   0.4438694826   0.444689958945   
      0.445572333194   0.446507012216   0.447484279821   0.448494474887   0.4495281528   
      0.450576225885   0.45163007977   0.452681664041   0.453723556864   0.454749004536   
      0.455751937968   0.456726968895   0.457669369156   0.458575036598   0.459440451186   
      0.460262624647   0.461039046654   0.461767630059   0.4624466572   0.463074728827   
      0.463650716687   0.46417372046   0.464643029378   0.465058088601   0.465418470263   
      0.465723848948   0.465973981313   0.466168689526   0.466307848218   0.466391374648   
      0.443100226317   0.443064026461   0.442955451686   0.442774578228   0.442521539415   
      0.442196535206   0.441799845851   0.441331849947   0.440793047202   0.440184086267   
      0.439505797955   0.438759234113   0.437945712291   0.43706686613   0.436124701147   
      0.435121655196   0.434060662444   0.432945219156   0.431779449035   0.430568165227   
      0.429316925587   0.428032077311   0.426720786806   0.425391050594   0.424051683325   
      0.422712279564   0.421383146944   0.420075209488   0.418799881358   0.417568912851   
      0.416394211996   0.415287646515   0.414260832065   0.413324913443   0.412490345851   
      0.411766683313   0.411162380973   0.410684617374   0.410339141952   0.410130152059   
      0.410060202806   0.410130152059   0.410339141952   0.410684617374   0.411162380973   
      0.411766683313   0.412490345851   0.413324913443   0.414260832065   0.415287646515   
      0.416394211996   0.417568912851   0.418799881358   0.420075209488   0.421383146944   
      0.422712279564   0.424051683325   0.425391050594   0.426720786806   0.428032077311   
      0.429316925587   0.430568165227   0.431779449035   0.432945219156   0.434060662444   
      0.435121655196   0.436124701147   0.43706686613   0.437945712291   0.438759234113   
      0.439505797955   0.440184086267   0.440793047202   0.441331849947   0.441799845851   
      0.442196535206   0.442521539415   0.442774578228   0.442955451686   0.443064026461   
      0.420047947069   0.420003211437   0.419869046144   0.419645578436   0.419333028551   
      0.418931722139   0.418442107961   0.417864781173   0.417200512517   0.416450283736   
      0.415615329492   0.414697185914   0.413697745732   0.412619319619   0.411464703011   
      0.410237247134   0.408940932416   0.407580441806   0.406161230841   0.404689590686   
      0.403172699857   0.401618660003   0.400036511085   0.398436221603   0.396828650194   
      0.395225476011   0.393639096726   0.392082494636   0.390569073162   0.389112467703   
      0.387726336315   0.38642413681   0.385218897491   0.384122988886   0.383147903517   
      0.382304049967   0.381600566529   0.381045158564   0.380643962584   0.380401439087   
      0.380320295383   0.380401439087   0.380643962584   0.381045158564   0.381600566529   
      0.382304049967   0.383147903517   0.384122988886   0.385218897491   0.38642413681   
      0.387726336315   0.389112467703   0.390569073162   0.392082494636   0.393639096726   
      0.395225476011   0.396828650194   0.398436221603   0.400036511085   0.401618660003   
      0.403172699857   0.404689590686   0.406161230841   0.407580441806   0.408940932416   
      0.410237247134   0.411464703011   0.412619319619   0.413697745732   0.414697185914   
      0.415615329492   0.416450283736   0.417200512517   0.417864781173   0.418442107961   
      0.418931722139   0.419333028551   0.419645578436   0.419869046144   0.420003211437   
      0.401953315149   0.401901904764   0.401747735641   0.401490996801   0.401132013061   
      0.400671259875   0.400109384436   0.399447233288   0.398685886765   0.397826700474   
      0.396871353974   0.395821906587   0.394680860001   0.393451226905   0.392136604417   
      0.390741250425   0.389270160308   0.387729140752   0.386124876711   0.384464986977   
      0.382758063458   0.38101368918   0.379242430366   0.37745579868   0.375666180918   
      0.373886735056   0.372131253377   0.370413995439   0.368749495516   0.367152350737   
      0.365636997308   0.36421748268   0.362907241455   0.361718882078   0.360663990181   
      0.359752952959   0.358994807351   0.358397113347   0.357965852481   0.35770535078   
      0.35761822497   0.35770535078   0.357965852481   0.358397113347   0.358994807351   
      0.359752952959   0.360663990181   0.361718882078   0.362907241455   0.36421748268   
      0.365636997308   0.367152350737   0.368749495516   0.370413995439   0.372131253377   
      0.373886735056   0.375666180918   0.37745579868   0.379242430366   0.38101368918   
      0.382758063458   0.384464986977   0.386124876711   0.387729140752   0.389270160308   
      0.390741250425   0.392136604417   0.393451226905   0.394680860001   0.395821906587   
      0.396871353974   0.397826700474   0.398685886765   0.399447233288   0.400109384436   
      0.400671259875   0.401132013061   0.401490996801   0.401747735641   0.401901904764   
      0.387708455591   0.387652320873   0.387483998518   0.387203737237   0.386811962647   
      0.386309294082   0.385696568404   0.384974871068   0.384145574636   0.383210384892   
      0.382171394512   0.381031143991   0.379792689178   0.378459674209   0.377036408106   
      0.375527942536   0.373940147509   0.37227978105   0.370554548214   0.368773144367   
      0.366945277506   0.365081664647   0.363193998012   0.361294878004   0.359397711616   
      0.357516576968   0.355666056849   0.353861046277   0.352116540912   0.350447414428   
      0.348868193533   0.347392839136   0.346034541241   0.344805533588   0.343716932185   
      0.342778599775   0.34199903636   0.341385294269   0.340942915133   0.340675885534   
      0.340586608132   0.340675885534   0.340942915133   0.341385294269   0.34199903636   
      0.342778599775   0.343716932185   0.344805533588   0.346034541241   0.347392839136   
      0.348868193533   0.350447414428   0.352116540912   0.353861046277   0.355666056849   
      0.357516576968   0.359397711616   0.361294878004   0.363193998012   0.365081664647   
      0.366945277506   0.368773144367   0.370554548214   0.37227978105   0.373940147509   
      0.375527942536   0.377036408106   0.378459674209   0.379792689178   0.381031143991   
      0.382171394512   0.383210384892   0.384145574636   0.384974871068   0.385696568404   
      0.386309294082   0.386811962647   0.387203737237   0.387483998518   0.387652320873   
      0.377382314368   0.377323154295   0.377145772151   0.37685046578   0.376437743717   
      0.375908343507   0.37526325761   0.374503767063   0.373631483041   0.372648396322   
      0.371556934448   0.370360026062   0.369061171407   0.367664517452   0.366174935378   
      0.364598097428   0.362940549318   0.36120977369   0.359414239502   0.357563431955   
      0.355667857655   0.353739020249   0.351789362928   0.349832175771   0.347881468035   
      0.345951807783   0.344058133661   0.342215545712   0.340439083763   0.338743502753   
      0.337143054418   0.335651283842   0.334280847798   0.333043359641   0.331949263059   
      0.331007734636   0.330226613056   0.329612351199   0.329169986418   0.328903124005   
      0.328813929198   0.328903124005   0.329169986418   0.329612351199   0.330226613056   
      0.331007734636   0.331949263059   0.333043359641   0.334280847798   0.335651283842   
      0.337143054418   0.338743502753   0.340439083763   0.342215545712   0.344058133661   
      0.345951807783   0.347881468035   0.349832175771   0.351789362928   0.353739020249   
      0.355667857655   0.357563431955   0.359414239502   0.36120977369   0.362940549318   
      0.364598097428   0.366174935378   0.367664517452   0.369061171407   0.370360026062   
      0.371556934448   0.372648396322   0.373631483041   0.374503767063   0.37526325761   
      0.375908343507   0.376437743717   0.37685046578   0.377145772151   0.377323154295   
      0.370734497472   0.37067358659   0.370490963423   0.370186960259   0.369762143749   
      0.36921733429   0.368553633371   0.36777245902   0.366875589403   0.365865214508   
      0.364743995532   0.363515131266   0.362182430221   0.360750386648   0.359224257834   
      0.357610139286   0.355915033601   0.354146908137   0.352314736082   0.35042851538   
      0.348499260246   0.346538960842   0.344560508052   0.342577582271   0.340604507402   
      0.338656073811   0.336747336413   0.334893396103   0.333109174112   0.331409189406   
      0.32980734877   0.328316757862   0.326949559452   0.325716802474   0.324628342817   
      0.323692774241   0.322917385682   0.322308139714   0.321869666165   0.321605264814   
      0.321516911713   0.321605264814   0.321869666165   0.322308139714   0.322917385682   
      0.323692774241   0.324628342817   0.325716802474   0.326949559452   0.328316757862   
      0.32980734877   0.331409189406   0.333109174112   0.334893396103   0.336747336413   
      0.338656073811   0.340604507402   0.342577582271   0.344560508052   0.346538960842   
      0.348499260246   0.35042851538   0.352314736082   0.354146908137   0.355915033601   
      0.357610139286   0.359224257834   0.360750386648   0.362182430221   0.363515131266   
      0.364743995532   0.365865214508   0.366875589403   0.36777245902   0.368553633371   
      0.36921733429   0.369762143749   0.370186960259   0.370490963423   0.37067358659   
      0.367497387456   0.367435682323   0.367250682272   0.366942737296   0.366512443933   
      0.365960665188   0.365288558624   0.364497612717   0.363589691489   0.362567087291   
      0.361432581273   0.360189510716   0.358841841858   0.357394246166   0.355852177273   
      0.354221944982   0.352510781922   0.350726897789   0.348879515657   0.346978884738   
      0.345036264415   0.343063875296   0.341074814609   0.339082935328   0.337102690879   
      0.335148949871   0.333236787727   0.331381264107   0.32959719619   0.327898938231   
      0.326300177094   0.324813751839   0.323451503121   0.32222415541   0.3211412322   
      0.320211001785   0.319440449086   0.318835267576   0.318399864699   0.318137374205   
      0.318049669613   0.318137374205   0.318399864699   0.318835267576   0.319440449086   
      0.320211001785   0.3211412322   0.32222415541   0.323451503121   0.324813751839   
      0.326300177094   0.327898938231   0.32959719619   0.331381264107   0.333236787727   
      0.335148949871   0.337102690879   0.339082935328   0.341074814609   0.343063875296   
      0.345036264415   0.346978884738   0.348879515657   0.350726897789   0.352510781922   
      0.354221944982   0.355852177273   0.357394246166   0.358841841858   0.360189510716   
      0.361432581273   0.362567087291   0.363589691489   0.364497612717   0.365288558624   
      0.365960665188   0.366512443933   0.366942737296   0.367250682272   0.367435682323   
      0.367497387456   0.367435682323   0.367250682272   0.366942737296   0.366512443933   
      0.365960665188   0.365288558624   0.364497612717   0.363589691489   0.362567087291   
      0.361432581273   0.360189510716   0.358841841858   0.357394246166   0.355852177273   
      0.354221944982   0.352510781922   0.350726897789   0.348879515657   0.346978884738   
      0.345036264415   0.343063875296   0.341074814609   0.339082935328   0.337102690879   
      0.335148949871   0.333236787727   0.331381264107   0.32959719619   0.327898938231   
      0.326300177094   0.324813751839   0.323451503121   0.32222415541   0.3211412322   
      0.320211001785   0.319440449086   0.318835267576   0.318399864699   0.318137374205   
      0.318049669613   0.318137374205   0.318399864699   0.318835267576   0.319440449086   
      0.320211001785   0.3211412322   0.32222415541   0.323451503121   0.324813751839   
      0.326300177094   0.327898938231   0.32959719619   0.331381264107   0.333236787727   
      0.335148949871   0.337102690879   0.339082935328   0.341074814609   0.343063875296   
      0.345036264415   0.346978884738   0.348879515657   0.350726897789   0.352510781922   
      0.354221944982   0.355852177273   0.357394246166   0.358841841858   0.360189510716   
      0.361432581273   0.362567087291   0.363589691489   0.364497612717   0.365288558624   
      0.365960665188   0.366512443933   0.366942737296   0.367250682272   0.367435682323   
      0.370734497472   0.37067358659   0.370490963423   0.370186960259   0.369762143749   
      0.36921733429   0.368553633371   0.36777245902   0.366875589403   0.365865214508   
      0.364743995532   0.363515131266   0.362182430221   0.360750386648   0.359224257834   
      0.357610139286   0.355915033601   0.354146908137   0.352314736082   0.35042851538   
      0.348499260246   0.346538960842   0.344560508052   0.342577582271   0.340604507402   
      0.338656073811   0.336747336413   0.334893396103   0.333109174112   0.331409189406   
      0.32980734877   0.328316757862   0.326949559452   0.325716802474   0.324628342817   
      0.323692774241   0.322917385682   0.322308139714   0.321869666165   0.321605264814   
      0.321516911713   0.321605264814   0.321869666165   0.322308139714   0.322917385682   
      0.323692774241   0.324628342817   0.325716802474   0.326949559452   0.328316757862   
      0.32980734877   0.331409189406   0.333109174112   0.334893396103   0.336747336413   
      0.338656073811   0.340604507402   0.342577582271   0.344560508052   0.346538960842   
      0.348499260246   0.35042851538   0.352314736082   0.354146908137   0.355915033601   
      0.357610139286   0.359224257834   0.360750386648   0.362182430221   0.363515131266   
      0.364743995532   0.365865214508   0.366875589403   0.36777245902   0.368553633371   
      0.36921733429   0.369762143749   0.370186960259   0.370490963423   0.37067358659   
      0.377382314368   0.377323154295   0.377145772151   0.37685046578   0.376437743717   
      0.375908343507   0.37526325761   0.374503767063   0.373631483041   0.372648396322   
      0.371556934448   0.370360026062   0.369061171407   0.367664517452   0.366174935378   
      0.364598097428   0.362940549318   0.36120977369   0.359414239502   0.357563431955   
      0.355667857655   0.353739020249   0.351789362928   0.349832175771   0.347881468035   
      0.345951807783   0.344058133661   0.342215545712   0.340439083763   0.338743502753   
      0.337143054418   0.335651283842   0.334280847798   0.333043359641   0.331949263059   
      0.331007734636   0.330226613056   0.329612351199   0.329169986418   0.328903124005   
      0.328813929198   0.328903124005   0.329169986418   0.329612351199   0.330226613056   
      0.331007734636   0.331949263059   0.333043359641   0.334280847798   0.335651283842   
      0.337143054418   0.338743502753   0.340439083763   0.342215545712   0.344058133661   
      0.345951807783   0.347881468035   0.349832175771   0.351789362928   0.353739020249   
      0.355667857655   0.357563431955   0.359414239502   0.36120977369   0.362940549318   
      0.364598097428   0.366174935378   0.367664517452   0.369061171407   0.370360026062   
      0.371556934448   0.372648396322   0.373631483041   0.374503767063   0.37526325761   
      0.375908343507   0.376437743717   0.37685046578   0.377145772151   0.377323154295   
      0.387708455591   0.387652320873   0.387483998518   0.387203737237   0.386811962647   
      0.386309294082   0.385696568404   0.384974871068   0.384145574636   0.383210384892   
      0.382171394512   0.381031143991   0.379792689178   0.378459674209   0.377036408106   
      0.375527942536   0.373940147509   0.37227978105   0.370554548214   0.368773144367   
      0.366945277506   0.365081664647   0.363193998012   0.361294878004   0.359397711616   
      0.357516576968   0.355666056849   0.353861046277   0.352116540912   0.350447414428   
      0.348868193533   0.347392839136   0.346034541241   0.344805533588   0.343716932185   
      0.342778599775   0.34199903636   0.341385294269   0.340942915133   0.340675885534   
      0.340586608132   0.340675885534   0.340942915133   0.341385294269   0.34199903636   
      0.342778599775   0.343716932185   0.344805533588   0.346034541241   0.347392839136   
      0.348868193533   0.350447414428   0.352116540912   0.353861046277   0.355666056849   
      0.357516576968   0.359397711616   0.361294878004   0.363193998012   0.365081664647   
      0.366945277506   0.368773144367   0.370554548214   0.37227978105   0.373940147509   
      0.375527942536   0.377036408106   0.378459674209   0.379792689178   0.381031143991   
      0.382171394512   0.383210384892   0.384145574636   0.384974871068   0.385696568404   
      0.386309294082   0.386811962647   0.387203737237   0.387483998518   0.387652320873   
      0.401953315149   0.401901904764   0.401747735641   0.401490996801   0.401132013061   
      0.400671259875   0.400109384436   0.399447233288   0.398685886765   0.397826700474   
      0.396871353974   0.395821906587   0.394680860001   0.393451226905   0.392136604417   
      0.390741250425   0.389270160308   0.387729140752   0.386124876711   0.384464986977   
      0.382758063458   0.38101368918   0.379242430366   0.37745579868   0.375666180918   
      0.373886735056   0.372131253377   0.370413995439   0.368749495516   0.367152350737   
      0.365636997308   0.36421748268   0.362907241455   0.361718882078   0.360663990181   
      0.359752952959   0.358994807351   0.358397113347   0.357965852481   0.35770535078   
      0.35761822497   0.35770535078   0.357965852481   0.358397113347   0.358994807351   
      0.359752952959   0.360663990181   0.361718882078   0.362907241455   0.36421748268   
      0.365636997308   0.367152350737   0.368749495516   0.370413995439   0.372131253377   
      0.373886735056   0.375666180918   0.37745579868   0.379242430366   0.38101368918   
      0.382758063458   0.384464986977   0.386124876711   0.387729140752   0.389270160308   
      0.390741250425   0.392136604417   0.393451226905   0.394680860001   0.395821906587   
      0.396871353974   0.397826700474   0.398685886765   0.399447233288   0.400109384436   
      0.400671259875   0.401132013061   0.401490996801   0.401747735641   0.401901904764   
      0.420047947069   0.420003211437   0.419869046144   0.419645578436   0.419333028551   