<?xml version="1.0"?>
<VTKFile type="ImageData" version="0.1" byte_order="LittleEndian">
  <ImageData WholeExtent="0 79 0 19 0 19" Origin="0 0 0" Spacing="1 1 1">
  <Piece Extent="0 79 0 19 0 19">
    <PointData Scalars="density">
       <DataArray type="Float32" Name="bluedensity" NumberOfComponents="1" format="ascii">
      0   0   0   0   0   
      0   0   0   0   0   
      0   0   0   0   0   
      0   0   0   0   0   
      0   0   0   0   0   
      0   0   0   0   0   
      0   0   0   0   0   
      0   0   0   0   0   
      0   0   0   0   0   
      0   0   0   0   0   
      0   0   0   0   0   
      0   0   0   0   0   
      0   0   0   0   0   
      0   0   0   0   0   
      0   0   0   0   0   
      0   0   0   0   0   
      0   0   0   0   0   
      0   0   0   0   0   
      0   0   0   0   0   
      0   0   0   0   0   
      0   0   0   0   0   
      0   0   0   0   0   
      0   0   0   0   0   
      0   0   0   0   0   
      0   0   0   0   0   
      0   0   0   0   0   
      0   0   0   0   0   
      0   0   0   0   0   
      0   0   0   0   0   
      0   0   0   0   0   
      0   0   0   0   0   
      0   0   0   0   0   
      0   0   0   0   0   
      0   0   0   0   0   
      0   0   0   0   0   
      0   0   0   0   0   
      0   0   0   0   0   
      0   0   0   0   0   
      0   0   0   0   0   
      0   0   0   0   0   
      0   0   0   0   0   
      0   0   0   0   0   
      0   0   0   0   0   
      0   0   0   0   0   
      0   0   0   0   0   
      0   0   0   0   0   
      0   0   0   0   0   
      0   0   0   0   0   
      0   0   0   0   0   
      0   0   0   0   0   
      0   0   0   0   0   
      0   0   0   0   0   
      0   0   0   0   0   
      0   0   0   0   0   
      0   0   0   0   0   
      0   0   0   0   0   
      0   0   0   0   0   
      0   0   0   0   0   
      0   0   0   0   0   
      0   0   0   0   0   
      0   0   0   0   0   
      0   0   0   0   0   
      0   0   0   0   0   
      0   0   0   0   0   
      0   0   0   0   0   
      0   0   0   0   0   
      0   0   0   0   0   
      0   0   0   0   0   
      0   0   0   0   0   
      0   0   0   0   0   
      0   0   0   0   0   
      0   0   0   0   0   
      0   0   0   0   0   
      0   0   0   0   0   
      0   0   0   0   0   
      0   0   0   0   0   
      0   0   0   0   0   
      0   0   0   0   0   
      0   0   0   0   0   
      0   0   0   0   0   
      0   0   0   0   0   
      0   0   0   0   0   
      0   0   0   0   0   
      0   0   0   0   0   
      0   0   0   0   0   
      0   0   0   0   0   
      0   0   0   0   0   
      0   0   0   0   0   
      0   0   0   0   0   
      0   0   0   0   0   
      0   0   0   0   0   
      0   0   0   0   0   
      0   0   0   0   0   
      0   0   0   0   0   
      0   0   0   0   0   
      0   0   0   0   0   
      0   0   0   0   0   
      0   0   0   0   0   
      0   0   0   0   0   
      0   0   0   0   0   
      0   0   0   0   0   
      0   0   0   0   0   
      0   0   0   0   0   
      0   0   0   0   0   
      0   0   0   0   0   
      0   0   0   0   0   
      0   0   0   0   0   
      0   0   0   0   0   
      0   0   0   0   0   
      0   0   0   0   0   
      0   0   0   0   0   
      0   0   0   0   0   
      0   0   0   0   0   
      0   0   0   0   0   
      0   0   0   0   0   
      0   0   0   0   0   
      0   0   0   0   0   
      0   0   0   0   0   
      0   0   0   0   0   
      0   0   0   0   0   
      0   0   0   0   0   
      0   0   0   0   0   
      0   0   0   0   0   
      0   0   0   0   0   
      0   0   0   0   0   
      0   0   0   0   0   
      0   0   0   0   0   
      0   0   0   0   0   
      0   0   0   0   0   
      0   0   0   0   0   
      0   0   0   0   0   
      0   0   0   0   0   
      0   0   0   0   0   
      0   0   0   0   0   
      0   0   0   0   0   
      0   0   0   0   0   
      0   0   0   0   0   
      0   0   0   0   0   
      0   0   0   0   0   
      0   0   0   0   0   
      0   0   0   0   0   
      0   0   0   0   0   
      0   0   0   0   0   
      0   0   0   0   0   
      0   0   0   0   0   
      0   0   0   0   0   
      0   0   0   0   0   
      0   0   0   0   0   
      0   0   0   0   0   
      0   0   0   0   0   
      0   0   0   0   0   
      0   0   0   0   0   
      0   0   0   0   0   
      0   0   0   0   0   
      0   0   0   0   0   
      0   0   0   0   0   
      0   0   0   0   0   
      0   0   0   0   0   
      0   0   0   0   0   
      0   0   0   0   0   
      0   0   0   0   0   
      0   0   0   0   0   
      0   0   0   0   0   
      0   0   0   0   0   
      0   0   0   0   0   
      0   0   0   0   0   
      0   0   0   0   0   
      0   0   0   0   0   
      0   0   0   0   0   
      0   0   0   0   0   
      0   0   0   0   0   
      0   0   0   0   0   
      0   0   0   0   0   
      0   0   0   0   0   
      0   0   0   0   0   
      0   0   0   0   0   
      0   0   0   0   0   
      0   0   0   0   0   
      0   0   0   0   0   
      0   0   0   0   0   
      0   0   0   0   0   
      0   0   0   0   0   
      0   0   0   0   0   
      0   0   0   0   0   
      0   0   0   0   0   
      0   0   0   0   0   
      0   0   0   0   0   
      0   0   0   0   0   
      0   0   0   0   0   
      0   0   0   0   0   
      0   0   0   0   0   
      0   0   0   0   0   
      0   0   0   0   0   
      0   0   0   0   0   
      0   0   0   0   0   
      0   0   0   0   0   
      0   0   0   0   0   
      0   0   0   0   0   
      0   0   0   0   0   
      0   0   0   0   0   
      0   0   0   0   0   
      0   0   0   0   0   
      0   0   0   0   0   
      0   0   0   0   0   
      0   0   0   0   0   
      0   0   0   0   0   
      0   0   0   0   0   
      0   0   0   0   0   
      0   0   0   0   0   
      0   0   0   0   0   
      0   0   0   0   0   
      0   0   0   0   0   
      0   0   0   0   0   
      0   0   0   0   0   
      0   0   0   0   0   
      0   0   0   0   0   
      0   0   0   0   0   
      0   0   0   0   0   
      0   0   0   0   0   
      0   0   0   0   0   
      0   0   0   0   0   
      0   0   0   0   0   
      0   0   0   0   0   
      0   0   0   0   0   
      0   0   0   0   0   
      0   0   0   0   0   
      0   0   0   0   0   
      0   0   0   0   0   
      0   0   0   0   0   
      0   0   0   0   0   
      0   0   0   0   0   
      0   0   0   0   0   
      0   0   0   0   0   
      0   0   0   0   0   
      0   0   0   0   0   
      0   0   0   0   0   
      0   0   0   0   0   
      0   0   0   0   0   
      0   0   0   0   0   
      0   0   0   0   0   
      0   0   0   0   0   
      0   0   0   0   0   
      0   0   0   0   0   
      0   0   0   0   0   
      0   0   0   0   0   
      0   0   0   0   0   
      0   0   0   0   0   
      0   0   0   0   0   
      0   0   0   0   0   
      0   0   0   0   0   
      0   0   0   0   0   
      0   0   0   0   0   
      0   0   0   0   0   
      0   0   0   0   0   
      0   0   0   0   0   
      0   0   0   0   0   
      0   0   0   0   0   
      0   0   0   0   0   
      0   0   0   0   0   
      0   0   0   0   0   
      0   0   0   0   0   
      0   0   0   0   0   
      0   0   0   0   0   
      0   0   0   0   0   
      0   0   0   0   0   
      0   0   0   0   0   
      0   0   0   0   0   
      0   0   0   0   0   
      0   0   0   0   0   
      0   0   0   0   0   
      0   0   0   0   0   
      0   0   0   0   0   
      0   0   0   0   0   
      0   0   0   0   0   
      0   0   0   0   0   
      0   0   0   0   0   
      0   0   0   0   0   
      0   0   0   0   0   
      0   0   0   0   0   
      0   0   0   0   0   
      0   0   0   0   0   
      0   0   0   0   0   
      0   0   0   0   0   
      0   0   0   0   0   
      0   0   0   0   0   
      0   0   0   0   0   
      0   0   0   0   0   
      0   0   0   0   0   
      0   0   0   0   0   
      0   0   0   0   0   
      0   0   0   0   0   
      0   0   0   0   0   
      0   0   0   0   0   
      0   0   0   0   0   
      0   0   0   0   0   
      0   0   0   0   0   
      0   0   0   0   0   
      0   0   0   0   0   
      0   0   0   0   0   
      0   0   0   0   0   
      0   0   0   0   0   
      0   0   0   0   0   
      0   0   0   0   0   
      0   0   0   0   0   
      0   0   0   0   0   
      0   0   0   0   0   
      0   0   0   0   0   
      0   0   0   0   0   
      0   0   0   0   0   
      0   0   0   0   0   
      0   0   0   0   0   
      0   0   0   0   0   
      0   0   0   0   0   
      0   0   0   0   0   
      0   0   0   0   0   
      0   0   0   0   0   
      0   0   0   0   0   
      0   0   0   0   0   
      0   0   0   0   0   
      0   0   0   0   0   
      0   0   0   0   0   
      0   0   0   0   0   
      0   0   0   0   0   
      0   0   0   0   0   
      0   0   0   0   0   
      0   0   0   0   0   
      0   0   0   0   0   
      0   0   0   0   0   
      0   0   0   0   0   
      0   0   0   0   0   
      0   0   0   0   0   
      0   0   0   0   0   
      0   0   0   0   0   
      0   0   0   0   0   
      0   0   0   0   0   
      0   0   0   0   0   
      0.580964426082   0.580934709856   0.580845522587   0.580696748722   0.58048819647   
      0.580219599263   0.579890618331   0.579500846975   0.579049817347   0.57853701081   
      0.577961873263   0.577323837118   0.576622351989   0.5758569264   0.575027183037   
      0.574132930078   0.573174250876   0.572151613637   0.571066001655   0.569919063045   
      0.568713276773   0.567452129251   0.566140292914   0.564783795515   0.563390166546   
      0.561968545818   0.560529739068   0.559086206888   0.557651976249   0.5562424684   
      0.554874242422   0.553564659758   0.552331480891   0.551192410357   0.550164610056   
      0.549264202949   0.548505789741   0.547902000155   0.547463098247   0.547196658165   
      0.547107323314   0.547196658165   0.547463098247   0.547902000155   0.548505789741   
      0.549264202949   0.550164610056   0.551192410357   0.552331480891   0.553564659758   
      0.554874242422   0.5562424684   0.557651976249   0.559086206888   0.560529739068   
      0.561968545818   0.563390166546   0.564783795515   0.566140292914   0.567452129251   
      0.568713276773   0.569919063045   0.571066001655   0.572151613637   0.573174250876   
      0.574132930078   0.575027183037   0.5758569264   0.576622351989   0.577323837118   
      0.577961873263   0.57853701081   0.579049817347   0.579500846975   0.579890618331   
      0.580219599263   0.58048819647   0.580696748722   0.580845522587   0.580934709856   
      0.472636103424   0.472595345765   0.472473006477   0.472268887143   0.471982658902   
      0.471613865632   0.47116192928   0.470626158311   0.470005760535   0.469299862037   
      0.468507534319   0.467627832214   0.466659845572   0.465602768004   0.464455986078   
      0.46321919221   0.461892523772   0.460476729759   0.458973364402   0.457385004479   
      0.455715483765   0.453970134343   0.452156020708   0.45028214925   0.448359633459   
      0.446401794574   0.444424178911   0.442444476903   0.440482334811   0.438559057564   
      0.436697209365   0.434920126608   0.433251364132   0.431714100361   0.430330528763   
      0.429121262614   0.428104777463   0.427296911734   0.426710441362   0.426354739826   
      0.426235531082   0.426354739826   0.426710441362   0.427296911734   0.428104777463   
      0.429121262614   0.430330528763   0.431714100361   0.433251364132   0.434920126608   
      0.436697209365   0.438559057564   0.440482334811   0.442444476903   0.444424178911   
      0.446401794574   0.448359633459   0.45028214925   0.452156020708   0.453970134343   
      0.455715483765   0.457385004479   0.458973364402   0.460476729759   0.461892523772   
      0.46321919221   0.464455986078   0.465602768004   0.466659845572   0.467627832214   
      0.468507534319   0.469299862037   0.470005760535   0.470626158311   0.47116192928   
      0.471613865632   0.471982658902   0.472268887143   0.472473006477   0.472595345765   
      0.451496641631   0.451443498231   0.451283986214   0.451017861226   0.450644719835   
      0.450164005898   0.449575020745   0.448876938545   0.448068828663   0.447149687344   
      0.446118481589   0.444974208585   0.443715974481   0.442343096491   0.440855232178   
      0.439252539137   0.437535866983   0.435706981393   0.433768816912   0.43172575135   
      0.429583890038   0.427351343507   0.425038477932   0.422658114673   0.420225654393   
      0.417759103102   0.415278982441   0.412808114284   0.410371279619   0.407994762306   
      0.405705798221   0.403531957977   0.401500495799   0.399637697717   0.397968259255   
      0.396514717065   0.395296951644   0.394331770756   0.393632576544   0.393209114475   
      0.393067299519   0.393209114475   0.393632576544   0.394331770756   0.395296951644   
      0.396514717065   0.397968259255   0.399637697717   0.401500495799   0.403531957977   
      0.405705798221   0.407994762306   0.410371279619   0.412808114284   0.415278982441   
      0.417759103102   0.420225654393   0.422658114673   0.425038477932   0.427351343507   
      0.429583890038   0.43172575135   0.433768816912   0.435706981393   0.437535866983   
      0.439252539137   0.440855232178   0.442343096491   0.443715974481   0.444974208585   
      0.446118481589   0.447149687344   0.448068828663   0.448876938545   0.449575020745   
      0.450164005898   0.450644719835   0.451017861226   0.451283986214   0.451443498231   
      0.430728989537   0.430662793756   0.43046412161   0.430132720587   0.429668176393   
      0.429069923656   0.428337262636   0.427469383776   0.426465402474   0.425324407097   
      0.424045523856   0.422628002641   0.421071328236   0.419375361272   0.417540512664   
      0.415567953951   0.413459863637   0.411219706257   0.408852536459   0.406365315092   
      0.403767218661   0.40106991828   0.398287800523   0.395438101334   0.392540926459   
      0.389619138071   0.386698097314   0.383805265171   0.380969677815   0.37822132507   
      0.375590469808   0.373106950457   0.370799507671   0.368695170116   0.366818724544   
      0.365192283739   0.363834954555   0.362762598589   0.361987671381   0.361519122677   
      0.36136234025   0.361519122677   0.361987671381   0.362762598589   0.363834954555   
      0.365192283739   0.366818724544   0.368695170116   0.370799507671   0.373106950457   
      0.375590469808   0.37822132507   0.380969677815   0.383805265171   0.386698097314   
      0.389619138071   0.392540926459   0.395438101334   0.398287800523   0.40106991828   
      0.403767218661   0.406365315092   0.408852536459   0.411219706257   0.413459863637   
      0.415567953951   0.417540512664   0.419375361272   0.421071328236   0.422628002641   
      0.424045523856   0.425324407097   0.426465402474   0.427469383776   0.428337262636   
      0.429069923656   0.429668176393   0.430132720587   0.43046412161   0.430662793756   
      0.414488040365   0.41441123224   0.414180733781   0.413796325488   0.413257650978   
      0.41256423226   0.411715493294   0.410710794107   0.409549478386   0.408230938178   
      0.406754699896   0.405120536272   0.403328608935   0.401379645856   0.399275156623   
      0.397017686272   0.394611104912   0.392060925687   0.389374637757   0.386562034606   
      0.383635511753   0.380610303198   0.377504623924   0.374339687876   0.371139577685   
      0.367930954168   0.364742608952   0.361604880513   0.358548969492   0.35560620059   
      0.352807283488   0.350181623075   0.347756720541   0.345557693233   0.343606925409   
      0.34192384658   0.340524821458   0.339423126719   0.338628985494   0.33814963032   
      0.337989368592   0.33814963032   0.338628985494   0.339423126719   0.340524821458   
      0.34192384658   0.343606925409   0.345557693233   0.347756720541   0.350181623075   
      0.352807283488   0.35560620059   0.358548969492   0.361604880513   0.364742608952   
      0.367930954168   0.371139577685   0.374339687876   0.377504623924   0.380610303198   
      0.383635511753   0.386562034606   0.389374637757   0.392060925687   0.394611104912   
      0.397017686272   0.399275156623   0.401379645856   0.403328608935   0.405120536272   
      0.406754699896   0.408230938178   0.409549478386   0.410710794107   0.411715493294   
      0.41256423226   0.413257650978   0.413796325488   0.414180733781   0.41441123224   
      0.401603133429   0.401518527547   0.401264652007   0.400841336682   0.400248310229   
      0.39948521969   0.398551660552   0.397447219913   0.396171536168   0.394724379335   
      0.393105756687   0.391316048609   0.389356179368   0.387227826474   0.384933670344   
      0.382477682704   0.379865447517   0.377104502199   0.374204679958   0.371178426926   
      0.368041061732   0.364810941708   0.361509500739   0.358161130001   0.354792884914   
      0.35143401867   0.348115362413   0.344868591297   0.341725430581   0.33871686355   
      0.335872401885   0.333219469284   0.330782932878   0.328584797415   0.326644057846   
      0.324976689775   0.323595745961   0.322511521369   0.321731748606   0.321261788923   
      0.321104789943   0.321261788923   0.321731748606   0.322511521369   0.323595745961   
      0.324976689775   0.326644057846   0.328584797415   0.330782932878   0.333219469284   
      0.335872401885   0.33871686355   0.341725430581   0.344868591297   0.348115362413   
      0.35143401867   0.354792884914   0.358161130001   0.361509500739   0.364810941708   
      0.368041061732   0.371178426926   0.374204679958   0.377104502199   0.379865447517   
      0.382477682704   0.384933670344   0.387227826474   0.389356179368   0.391316048609   
      0.393105756687   0.394724379335   0.396171536168   0.397447219913   0.398551660552   
      0.39948521969   0.400248310229   0.400841336682   0.401264652007   0.401518527547   
      0.3921791883   0.392089407007   0.391820020457   0.391370904906   0.390741868749   
      0.389932675968   0.388943081924   0.387772884491   0.386421994314   0.384890528693   
      0.383178934048   0.381288141988   0.379219763426   0.376976323655   0.374561538597   
      0.371980628227   0.369240657489   0.366350887954   0.36332311576   0.360171963986   
      0.356915092298   0.353573285085   0.350170383281   0.346733035496   0.343290260787   
      0.339872836616   0.336512547923   0.333241352638   0.330090531348   0.327089891425   
      0.324267088153   0.321647108745   0.319251943248   0.317100443255   0.315208349013   
      0.313588450657   0.312250840952   0.311203214858   0.310451174061   0.309998500784   
      0.309847372912   0.309998500784   0.310451174061   0.311203214858   0.312250840952   
      0.313588450657   0.315208349013   0.317100443255   0.319251943248   0.321647108745   
      0.324267088153   0.327089891425   0.330090531348   0.333241352638   0.336512547923   
      0.339872836616   0.343290260787   0.346733035496   0.350170383281   0.353573285085   
      0.356915092298   0.360171963986   0.36332311576   0.366350887954   0.369240657489   
      0.371980628227   0.374561538597   0.376976323655   0.379219763426   0.381288141988   
      0.383178934048   0.384890528693   0.386421994314   0.387772884491   0.388943081924   
      0.389932675968   0.390741868749   0.391370904906   0.391820020457   0.392089407007   
      0.3860695049   0.385976635147   0.385697994197   0.385233491796   0.384582994056   
      0.383746349876   0.382723431165   0.381514190089   0.380118737379   0.378537446437   
      0.376771088356   0.374821002839   0.372689309151   0.370379159264   0.367895032076   
      0.365243062667   0.362431394112   0.359470531605   0.356373670519   0.353156962768   
      0.349839681303   0.346444242816   0.342996055282   0.339523170718   0.336055743583   
      0.332625319047   0.329263998913   0.326003551535   0.322874541546   0.31990555335   
      0.317122569407   0.314548542963   0.312203179644   0.310102917697   0.308261076828   
      0.30668813254   0.305392067363   0.304378751144   0.303652307963   0.303215435112   
      0.303069648238   0.303215435112   0.303652307963   0.304378751144   0.305392067363   
      0.30668813254   0.308261076828   0.310102917697   0.312203179644   0.314548542963   
      0.317122569407   0.31990555335   0.322874541546   0.326003551535   0.329263998913   
      0.332625319047   0.336055743583   0.339523170718   0.342996055282   0.346444242816   
      0.349839681303   0.353156962768   0.356373670519   0.359470531605   0.362431394112   
      0.365243062667   0.367895032076   0.370379159264   0.372689309151   0.374821002839   
      0.376771088356   0.378537446437   0.380118737379   0.381514190089   0.382723431165   
      0.383746349876   0.384582994056   0.385233491796   0.385697994197   0.385976635147   
      0.383081748046   0.382987446065   0.382704514069   0.382232879026   0.381572436809   
      0.380723080263   0.37968474187   0.378457454354   0.377041433377   0.375437187184   
      0.373645658363   0.371668402659   0.369507808744   0.367167360665   0.364651941047   
      0.36196816787   0.359124750758   0.356132844687   0.353006370644   0.349762265731   
      0.346420621189   0.343004668159   0.33954057903   0.336057067776   0.332584794373   
      0.329155603435   0.325801651056   0.322554491602   0.319444203851   0.31649863147   
      0.313742797101   0.311198525723   0.308884286134   0.306815234442   0.305003424103   
      0.303458135308   0.302186272567   0.301192781701   0.300481044074   0.300053214599   
      0.29991047907   0.300053214599   0.300481044074   0.301192781701   0.302186272567   
      0.303458135308   0.305003424103   0.306815234442   0.308884286134   0.311198525723   
      0.313742797101   0.31649863147   0.319444203851   0.322554491602   0.325801651056   
      0.329155603435   0.332584794373   0.336057067776   0.33954057903   0.343004668159   
      0.346420621189   0.349762265731   0.353006370644   0.356132844687   0.359124750758   
      0.36196816787   0.364651941047   0.367167360665   0.369507808744   0.371668402659   
      0.373645658363   0.375437187184   0.377041433377   0.378457454354   0.37968474187   
      0.380723080263   0.381572436809   0.382232879026   0.382704514069   0.382987446065   
      0.383081748046   0.382987446065   0.382704514069   0.382232879026   0.381572436809   
      0.380723080263   0.37968474187   0.378457454354   0.377041433377   0.375437187184   
      0.373645658363   0.371668402659   0.369507808744   0.367167360665   0.364651941047   
      0.36196816787   0.359124750758   0.356132844687   0.353006370644   0.349762265731   
      0.346420621189   0.343004668159   0.33954057903   0.336057067776   0.332584794373   
      0.329155603435   0.325801651056   0.322554491602   0.319444203851   0.31649863147   
      0.313742797101   0.311198525723   0.308884286134   0.306815234442   0.305003424103   
      0.303458135308   0.302186272567   0.301192781701   0.300481044074   0.300053214599   
      0.29991047907   0.300053214599   0.300481044074   0.301192781701   0.302186272567   
      0.303458135308   0.305003424103   0.306815234442   0.308884286134   0.311198525723   
      0.313742797101   0.31649863147   0.319444203851   0.322554491602   0.325801651056   
      0.329155603435   0.332584794373   0.336057067776   0.33954057903   0.343004668159   
      0.346420621189   0.349762265731   0.353006370644   0.356132844687   0.359124750758   
      0.36196816787   0.364651941047   0.367167360665   0.369507808744   0.371668402659   
      0.373645658363   0.375437187184   0.377041433377   0.378457454354   0.37968474187   
      0.380723080263   0.381572436809   0.382232879026   0.382704514069   0.382987446065   
      0.3860695049   0.385976635147   0.385697994197   0.385233491796   0.384582994056   
      0.383746349876   0.382723431165   0.381514190089   0.380118737379   0.378537446437   
      0.376771088356   0.374821002839   0.372689309151   0.370379159264   0.367895032076   
      0.365243062667   0.362431394112   0.359470531605   0.356373670519   0.353156962768   
      0.349839681303   0.346444242816   0.342996055282   0.339523170718   0.336055743583   
      0.332625319047   0.329263998913   0.326003551535   0.322874541546   0.31990555335   
      0.317122569407   0.314548542963   0.312203179644   0.310102917697   0.308261076828   
      0.30668813254   0.305392067363   0.304378751144   0.303652307963   0.303215435112   
      0.303069648238   0.303215435112   0.303652307963   0.304378751144   0.305392067363   
      0.30668813254   0.308261076828   0.310102917697   0.312203179644   0.314548542963   
      0.317122569407   0.31990555335   0.322874541546   0.326003551535   0.329263998913   
      0.332625319047   0.336055743583   0.339523170718   0.342996055282   0.346444242816   
      0.349839681303   0.353156962768   0.356373670519   0.359470531605   0.362431394112   
      0.365243062667   0.367895032076   0.370379159264   0.372689309151   0.374821002839   
      0.376771088356   0.378537446437   0.380118737379   0.381514190089   0.382723431165   
      0.383746349876   0.384582994056   0.385233491796   0.385697994197   0.385976635147   
      0.3921791883   0.392089407007   0.391820020457   0.391370904906   0.390741868749   
      0.389932675968   0.388943081924   0.387772884491   0.386421994314   0.384890528693   
      0.383178934048   0.381288141988   0.379219763426   0.376976323655   0.374561538597   
      0.371980628227   0.369240657489   0.366350887954   0.36332311576   0.360171963986   
      0.356915092298   0.353573285085   0.350170383281   0.346733035496   0.343290260787   
      0.339872836616   0.336512547923   0.333241352638   0.330090531348   0.327089891425   
      0.324267088153   0.321647108745   0.319251943248   0.317100443255   0.315208349013   
      0.313588450657   0.312250840952   0.311203214858   0.310451174061   0.309998500784   
      0.309847372912   0.309998500784   0.310451174061   0.311203214858   0.312250840952   
      0.313588450657   0.315208349013   0.317100443255   0.319251943248   0.321647108745   
      0.324267088153   0.327089891425   0.330090531348   0.333241352638   0.336512547923   
      0.339872836616   0.343290260787   0.346733035496   0.350170383281   0.353573285085   
      0.356915092298   0.360171963986   0.36332311576   0.366350887954   0.369240657489   
      0.371980628227   0.374561538597   0.376976323655   0.379219763426   0.381288141988   
      0.383178934048   0.384890528693   0.386421994314   0.387772884491   0.388943081924   
      0.389932675968   0.390741868749   0.391370904906   0.391820020457   0.392089407007   
      0.401603133429   0.401518527547   0.401264652007   0.400841336682   0.400248310229   
      0.39948521969   0.398551660552   0.397447219913   0.396171536168   0.394724379335   
      0.393105756687   0.391316048609   0.389356179368   0.387227826474   0.384933670344   
      0.382477682704   0.379865447517   0.377104502199   0.374204679958   0.371178426926   
      0.368041061732   0.364810941708   0.361509500739   0.358161130001   0.354792884914   
      0.35143401867   0.348115362413   0.344868591297   0.341725430581   0.33871686355   
      0.335872401885   0.333219469284   0.330782932878   0.328584797415   0.326644057846   
      0.324976689775   0.323595745961   0.322511521369   0.321731748606   0.321261788923   
      0.321104789943   0.321261788923   0.321731748606   0.322511521369   0.323595745961   
      0.324976689775   0.326644057846   0.328584797415   0.330782932878   0.333219469284   
      0.335872401885   0.33871686355   0.341725430581   0.344868591297   0.348115362413   
      0.35143401867   0.354792884914   0.358161130001   0.361509500739   0.364810941708   
      0.368041061732   0.371178426926   0.374204679958   0.377104502199   0.379865447517   
      0.382477682704   0.384933670344   0.387227826474   0.389356179368   0.391316048609   
      0.393105756687   0.394724379335   0.396171536168   0.397447219913   0.398551660552   
      0.39948521969   0.400248310229   0.400841336682   0.401264652007   0.401518527547   
      0.414488040365   0.41441123224   0.414180733781   0.413796325488   0.413257650978   
      0.41256423226   0.411715493294   0.410710794107   0.409549478386   0.408230938178   
      0.406754699896   0.405120536272   0.403328608935   0.401379645856   0.399275156623   
      0.397017686272   0.394611104912   0.392060925687   0.389374637757   0.386562034606   
      0.383635511753   0.380610303198   0.377504623924   0.374339687876   0.371139577685   
      0.367930954168   0.364742608952   0.361604880513   0.358548969492   0.35560620059   
      0.352807283488   0.350181623075   0.347756720541   0.345557693233   0.343606925409   
      0.34192384658   0.340524821458   0.339423126719   0.338628985494   0.33814963032   
      0.337989368592   0.33814963032   0.338628985494   0.339423126719   0.340524821458   
      0.34192384658   0.343606925409   0.345557693233   0.347756720541   0.350181623075   
      0.352807283488   0.35560620059   0.358548969492   0.361604880513   0.364742608952   
      0.367930954168   0.371139577685   0.374339687876   0.377504623924   0.380610303198   
      0.383635511753   0.386562034606   0.389374637757   0.392060925687   0.394611104912   
      0.397017686272   0.399275156623   0.401379645856   0.403328608935   0.405120536272   
      0.406754699896   0.408230938178   0.409549478386   0.410710794107   0.411715493294   
      0.41256423226   0.413257650978   0.413796325488   0.414180733781   0.41441123224   
      0.430728989537   0.430662793756   0.43046412161   0.430132720587   0.429668176393   