<?xml version="1.0"?>
<VTKFile type="ImageData" version="0.1" byte_order="LittleEndian">
  <ImageData WholeExtent="0 79 0 19 0 19" Origin="0 0 0" Spacing="1 1 1">
  <Piece Extent="0 79 0 19 0 19">
    <PointData Scalars="density">
       <DataArray type="Float32" Name="bluedensity" NumberOfComponents="1" format="ascii">
      0   0   0   0   0   
      0   0   0   0   0   
      0   0   0   0   0   
      0   0   0   0   0   
      0   0   0   0   0   
      0   0   0   0   0   
      0   0   0   0   0   
      0   0   0   0   0   
      0   0   0   0   0   
      0   0   0   0   0   
      0   0   0   0   0   
      0   0   0   0   0   
      0   0   0   0   0   
      0   0   0   0   0   
      0   0   0   0   0   
      0   0   0   0   0   
      0   0   0   0   0   
      0   0   0   0   0   
      0   0   0   0   0   
      0   0   0   0   0   
      0   0   0   0   0   
      0   0   0   0   0   
      0   0   0   0   0   
      0   0   0   0   0   
      0   0   0   0   0   
      0   0   0   0   0   
      0   0   0   0   0   
      0   0   0   0   0   
      0   0   0   0   0   
      0   0   0   0   0   
      0   0   0   0   0   
      0   0   0   0   0   
      0   0   0   0   0   
      0   0   0   0   0   
      0   0   0   0   0   
      0   0   0   0   0   
      0   0   0   0   0   
      0   0   0   0   0   
      0   0   0   0   0   
      0   0   0   0   0   
      0   0   0   0   0   
      0   0   0   0   0   
      0   0   0   0   0   
      0   0   0   0   0   
      0   0   0   0   0   
      0   0   0   0   0   
      0   0   0   0   0   
      0   0   0   0   0   
      0   0   0   0   0   
      0   0   0   0   0   
      0   0   0   0   0   
      0   0   0   0   0   
      0   0   0   0   0   
      0   0   0   0   0   
      0   0   0   0   0   
      0   0   0   0   0   
      0   0   0   0   0   
      0   0   0   0   0   
      0   0   0   0   0   
      0   0   0   0   0   
      0   0   0   0   0   
      0   0   0   0   0   
      0   0   0   0   0   
      0   0   0   0   0   
      0   0   0   0   0   
      0   0   0   0   0   
      0   0   0   0   0   
      0   0   0   0   0   
      0   0   0   0   0   
      0   0   0   0   0   
      0   0   0   0   0   
      0   0   0   0   0   
      0   0   0   0   0   
      0   0   0   0   0   
      0   0   0   0   0   
      0   0   0   0   0   
      0   0   0   0   0   
      0   0   0   0   0   
      0   0   0   0   0   
      0   0   0   0   0   
      0   0   0   0   0   
      0   0   0   0   0   
      0   0   0   0   0   
      0   0   0   0   0   
      0   0   0   0   0   
      0   0   0   0   0   
      0   0   0   0   0   
      0   0   0   0   0   
      0   0   0   0   0   
      0   0   0   0   0   
      0   0   0   0   0   
      0   0   0   0   0   
      0   0   0   0   0   
      0   0   0   0   0   
      0   0   0   0   0   
      0   0   0   0   0   
      0   0   0   0   0   
      0   0   0   0   0   
      0   0   0   0   0   
      0   0   0   0   0   
      0   0   0   0   0   
      0   0   0   0   0   
      0   0   0   0   0   
      0   0   0   0   0   
      0   0   0   0   0   
      0   0   0   0   0   
      0   0   0   0   0   
      0   0   0   0   0   
      0   0   0   0   0   
      0   0   0   0   0   
      0   0   0   0   0   
      0   0   0   0   0   
      0   0   0   0   0   
      0   0   0   0   0   
      0   0   0   0   0   
      0   0   0   0   0   
      0   0   0   0   0   
      0   0   0   0   0   
      0   0   0   0   0   
      0   0   0   0   0   
      0   0   0   0   0   
      0   0   0   0   0   
      0   0   0   0   0   
      0   0   0   0   0   
      0   0   0   0   0   
      0   0   0   0   0   
      0   0   0   0   0   
      0   0   0   0   0   
      0   0   0   0   0   
      0   0   0   0   0   
      0   0   0   0   0   
      0   0   0   0   0   
      0   0   0   0   0   
      0   0   0   0   0   
      0   0   0   0   0   
      0   0   0   0   0   
      0   0   0   0   0   
      0   0   0   0   0   
      0   0   0   0   0   
      0   0   0   0   0   
      0   0   0   0   0   
      0   0   0   0   0   
      0   0   0   0   0   
      0   0   0   0   0   
      0   0   0   0   0   
      0   0   0   0   0   
      0   0   0   0   0   
      0   0   0   0   0   
      0   0   0   0   0   
      0   0   0   0   0   
      0   0   0   0   0   
      0   0   0   0   0   
      0   0   0   0   0   
      0   0   0   0   0   
      0   0   0   0   0   
      0   0   0   0   0   
      0   0   0   0   0   
      0   0   0   0   0   
      0   0   0   0   0   
      0   0   0   0   0   
      0   0   0   0   0   
      0   0   0   0   0   
      0   0   0   0   0   
      0   0   0   0   0   
      0   0   0   0   0   
      0   0   0   0   0   
      0   0   0   0   0   
      0   0   0   0   0   
      0   0   0   0   0   
      0   0   0   0   0   
      0   0   0   0   0   
      0   0   0   0   0   
      0   0   0   0   0   
      0   0   0   0   0   
      0   0   0   0   0   
      0   0   0   0   0   
      0   0   0   0   0   
      0   0   0   0   0   
      0   0   0   0   0   
      0   0   0   0   0   
      0   0   0   0   0   
      0   0   0   0   0   
      0   0   0   0   0   
      0   0   0   0   0   
      0   0   0   0   0   
      0   0   0   0   0   
      0   0   0   0   0   
      0   0   0   0   0   
      0   0   0   0   0   
      0   0   0   0   0   
      0   0   0   0   0   
      0   0   0   0   0   
      0   0   0   0   0   
      0   0   0   0   0   
      0   0   0   0   0   
      0   0   0   0   0   
      0   0   0   0   0   
      0   0   0   0   0   
      0   0   0   0   0   
      0   0   0   0   0   
      0   0   0   0   0   
      0   0   0   0   0   
      0   0   0   0   0   
      0   0   0   0   0   
      0   0   0   0   0   
      0   0   0   0   0   
      0   0   0   0   0   
      0   0   0   0   0   
      0   0   0   0   0   
      0   0   0   0   0   
      0   0   0   0   0   
      0   0   0   0   0   
      0   0   0   0   0   
      0   0   0   0   0   
      0   0   0   0   0   
      0   0   0   0   0   
      0   0   0   0   0   
      0   0   0   0   0   
      0   0   0   0   0   
      0   0   0   0   0   
      0   0   0   0   0   
      0   0   0   0   0   
      0   0   0   0   0   
      0   0   0   0   0   
      0   0   0   0   0   
      0   0   0   0   0   
      0   0   0   0   0   
      0   0   0   0   0   
      0   0   0   0   0   
      0   0   0   0   0   
      0   0   0   0   0   
      0   0   0   0   0   
      0   0   0   0   0   
      0   0   0   0   0   
      0   0   0   0   0   
      0   0   0   0   0   
      0   0   0   0   0   
      0   0   0   0   0   
      0   0   0   0   0   
      0   0   0   0   0   
      0   0   0   0   0   
      0   0   0   0   0   
      0   0   0   0   0   
      0   0   0   0   0   
      0   0   0   0   0   
      0   0   0   0   0   
      0   0   0   0   0   
      0   0   0   0   0   
      0   0   0   0   0   
      0   0   0   0   0   
      0   0   0   0   0   
      0   0   0   0   0   
      0   0   0   0   0   
      0   0   0   0   0   
      0   0   0   0   0   
      0   0   0   0   0   
      0   0   0   0   0   
      0   0   0   0   0   
      0   0   0   0   0   
      0   0   0   0   0   
      0   0   0   0   0   
      0   0   0   0   0   
      0   0   0   0   0   
      0   0   0   0   0   
      0   0   0   0   0   
      0   0   0   0   0   
      0   0   0   0   0   
      0   0   0   0   0   
      0   0   0   0   0   
      0   0   0   0   0   
      0   0   0   0   0   
      0   0   0   0   0   
      0   0   0   0   0   
      0   0   0   0   0   
      0   0   0   0   0   
      0   0   0   0   0   
      0   0   0   0   0   
      0   0   0   0   0   
      0   0   0   0   0   
      0   0   0   0   0   
      0   0   0   0   0   
      0   0   0   0   0   
      0   0   0   0   0   
      0   0   0   0   0   
      0   0   0   0   0   
      0   0   0   0   0   
      0   0   0   0   0   
      0   0   0   0   0   
      0   0   0   0   0   
      0   0   0   0   0   
      0   0   0   0   0   
      0   0   0   0   0   
      0   0   0   0   0   
      0   0   0   0   0   
      0   0   0   0   0   
      0   0   0   0   0   
      0   0   0   0   0   
      0   0   0   0   0   
      0   0   0   0   0   
      0   0   0   0   0   
      0   0   0   0   0   
      0   0   0   0   0   
      0   0   0   0   0   
      0   0   0   0   0   
      0   0   0   0   0   
      0   0   0   0   0   
      0   0   0   0   0   
      0   0   0   0   0   
      0   0   0   0   0   
      0   0   0   0   0   
      0   0   0   0   0   
      0   0   0   0   0   
      0   0   0   0   0   
      0   0   0   0   0   
      0   0   0   0   0   
      0   0   0   0   0   
      0   0   0   0   0   
      0   0   0   0   0   
      0   0   0   0   0   
      0   0   0   0   0   
      0   0   0   0   0   
      0   0   0   0   0   
      0   0   0   0   0   
      0   0   0   0   0   
      0   0   0   0   0   
      0   0   0   0   0   
      0   0   0   0   0   
      0   0   0   0   0   
      0   0   0   0   0   
      0   0   0   0   0   
      0   0   0   0   0   
      0   0   0   0   0   
      0   0   0   0   0   
      0   0   0   0   0   
      0   0   0   0   0   
      0   0   0   0   0   
      0.573115495074   0.573104165767   0.57307021243   0.573013739178   0.572934920741   
      0.572834004258   0.572711311767   0.572567243343   0.57240228086   0.572216992306   
      0.572012036578   0.571788168655   0.571546245026   0.571287229228   0.57101219729   
      0.570722342892   0.570418981973   0.570103556515   0.569777637191   0.569442924556   
      0.56910124842   0.568754565081   0.568404952075   0.56805460014   0.567705802146   
      0.567360938806   0.56702246107   0.566692869204   0.56637468868   0.566070443133   
      0.565782624776   0.565513662777   0.565265890259   0.565041510659   0.564842564275   
      0.564670895907   0.564528124465   0.564415615462   0.564334457208   0.564285441457   
      0.564269049112   0.564285441457   0.564334457208   0.564415615462   0.564528124465   
      0.564670895907   0.564842564275   0.565041510659   0.565265890259   0.565513662777   
      0.565782624776   0.566070443133   0.56637468868   0.566692869204   0.56702246107   
      0.567360938806   0.567705802146   0.56805460014   0.568404952075   0.568754565081   
      0.56910124842   0.569442924556   0.569777637191   0.570103556515   0.570418981973   
      0.570722342892   0.57101219729   0.571287229228   0.571546245026   0.571788168655   
      0.572012036578   0.572216992306   0.57240228086   0.572567243343   0.572711311767   
      0.572834004258   0.572934920741   0.573013739178   0.57307021243   0.573104165767   
      0.461202736155   0.461187020986   0.461139923078   0.461061585752   0.460952249654   
      0.460812255384   0.460642047144   0.460442177338   0.460213312058   0.459956237372   
      0.459671866272   0.459361246151   0.459025566602   0.458666167318   0.458284545812   
      0.457882364641   0.457461457777   0.457023835711   0.456571688858   0.456107388808   
      0.455633486936   0.455152709921   0.454667951731   0.454182261682   0.453698828276   
      0.453220958599   0.452752053194   0.452295576485   0.45185502297   0.451433879581   
      0.451035584784   0.450663485162   0.450320790372   0.450010527477   0.449735495785   
      0.449498223351   0.449300926308   0.449145472189   0.449033348283   0.448965635972   
      0.448942991817   0.448965635972   0.449033348283   0.449145472189   0.449300926308   
      0.449498223351   0.449735495785   0.450010527477   0.450320790372   0.450663485162   
      0.451035584784   0.451433879581   0.45185502297   0.452295576485   0.452752053194   
      0.453220958599   0.453698828276   0.454182261682   0.454667951731   0.455152709921   
      0.455633486936   0.456107388808   0.456571688858   0.457023835711   0.457461457777   
      0.457882364641   0.458284545812   0.458666167318   0.459025566602   0.459361246151   
      0.459671866272   0.459956237372   0.460213312058   0.460442177338   0.460642047144   
      0.460812255384   0.460952249654   0.461061585752   0.461139923078   0.461187020986   
      0.436217654408   0.436197332701   0.436136431587   0.436035143765   0.435893792653   
      0.435712835725   0.435492869121   0.435234633436   0.4349390206   0.434607081696   
      0.434240035549   0.433839277867   0.433406390663   0.432943151642   0.432451543194   
      0.43193376055   0.431392218646   0.430829557184   0.430248643315   0.42965257142   
      0.429044659391   0.4284284409   0.427807653163   0.42718621979   0.426568228436   
      0.425957903088   0.425359571001   0.424777624458   0.424216477739   0.423680519875   
      0.423174063946   0.422701293873   0.422266209786   0.421872573179   0.421523853138   
      0.421223174959   0.420973272452   0.420776445183   0.42063452178   0.420548830298   
      0.42052017645   0.420548830298   0.42063452178   0.420776445183   0.420973272452   
      0.421223174959   0.421523853138   0.421872573179   0.422266209786   0.422701293873   
      0.423174063946   0.423680519875   0.424216477739   0.424777624458   0.425359571001   
      0.425957903088   0.426568228436   0.42718621979   0.427807653163   0.4284284409   
      0.429044659391   0.42965257142   0.430248643315   0.430829557184   0.431392218646   
      0.43193376055   0.432451543194   0.432943151642   0.433406390663   0.433839277867   
      0.434240035549   0.434607081696   0.4349390206   0.435234633436   0.435492869121   
      0.435712835725   0.435893792653   0.436035143765   0.436136431587   0.436197332701   
      0.411475974563   0.411451080616   0.411376481625   0.411252426931   0.411079334729   
      0.410857795944   0.410588579573   0.41027263935   0.40991112162   0.409505374204   
      0.409056956033   0.408567647251   0.408039459445   0.407474645583   0.406875709215   
      0.406245412382   0.405586781701   0.404903111984   0.404197966779   0.403475175205   
      0.402738824457   0.401993247456   0.401243005146   0.400492863114   0.399747762305   
      0.399012783811   0.398293107887   0.397593967551   0.396920597354   0.396278178067   
      0.395671778257   0.395106293847   0.394586386891   0.394116424873   0.393700421867   
      0.393341982902   0.393044252799   0.392809870675   0.392640931185   0.392538953385   
      0.392504857968   0.392538953385   0.392640931185   0.392809870675   0.393044252799   
      0.393341982902   0.393700421867   0.394116424873   0.394586386891   0.395106293847   
      0.395671778257   0.396278178067   0.396920597354   0.397593967551   0.398293107887   
      0.399012783811   0.399747762305   0.400492863114   0.401243005146   0.401993247456   
      0.402738824457   0.403475175205   0.404197966779   0.404903111984   0.405586781701   
      0.406245412382   0.406875709215   0.407474645583   0.408039459445   0.408567647251   
      0.409056956033   0.409505374204   0.40991112162   0.41027263935   0.410588579573   
      0.410857795944   0.411079334729   0.411252426931   0.411376481625   0.411451080616   
      0.39207090691   0.392042579911   0.391957698714   0.391816563568   0.391619677684   
      0.391367751357   0.391061707614   0.390702689223   0.390292066895   0.389831448425   
      0.389322688486   0.388767898706   0.388169457619   0.387530019998   0.386852525041   
      0.386140202798   0.385396578226   0.38462547219   0.383830998769   0.38301755821   
      0.382189824955   0.381352730243   0.380511438888   0.379671320026   0.378837911752   
      0.378016879792   0.377213970567   0.376434959192   0.375685593173   0.374971532726   
      0.374298288808   0.37367116004   0.373095169787   0.372575004667   0.372114955746   
      0.37171886362   0.371390068496   0.371131366234   0.370944971223   0.370832486783   
      0.370794883626   0.370832486783   0.370944971223   0.371131366234   0.371390068496   
      0.37171886362   0.372114955746   0.372575004667   0.373095169787   0.37367116004   
      0.374298288808   0.374971532726   0.375685593173   0.376434959192   0.377213970567   
      0.378016879792   0.378837911752   0.379671320026   0.380511438888   0.381352730243   
      0.382189824955   0.38301755821   0.383830998769   0.38462547219   0.385396578226   
      0.386140202798   0.386852525041   0.387530019998   0.388169457619   0.388767898706   
      0.389322688486   0.389831448425   0.390292066895   0.390702689223   0.391061707614   
      0.391367751357   0.391619677684   0.391816563568   0.391957698714   0.392042579911   
      0.376906889741   0.376876240402   0.3767844059   0.376631727629   0.376418777418   
      0.376146361691   0.375815527144   0.375427567744   0.37498403284   0.374486736091   
      0.373937764874   0.373339489748   0.372694573504   0.372005979264   0.371276977019   
      0.370511147988   0.369712386108   0.36888489599   0.368033186683   0.367162060628   
      0.366276597297   0.365382131079   0.364484223179   0.363588627425   0.362701250111   
      0.361828104188   0.360975258344   0.360148781697   0.359354685012   0.358598859498   
      0.357887014314   0.357224614012   0.35661681711   0.356068416972   0.355583786092   
      0.355166824765   0.354820915017   0.354548880497   0.354352952949   0.354234745685   
      0.35419523442   0.354234745685   0.354352952949   0.354548880497   0.354820915017   
      0.355166824765   0.355583786092   0.356068416972   0.35661681711   0.357224614012   
      0.357887014314   0.358598859498   0.359354685012   0.360148781697   0.360975258344   
      0.361828104188   0.362701250111   0.363588627425   0.364484223179   0.365382131079   
      0.366276597297   0.367162060628   0.368033186683   0.36888489599   0.369712386108   
      0.370511147988   0.371276977019   0.372005979264   0.372694573504   0.373339489748   
      0.373937764874   0.374486736091   0.37498403284   0.375427567744   0.375815527144   
      0.376146361691   0.376418777418   0.376631727629   0.3767844059   0.376876240402   
      0.365998278693   0.365966218323   0.365870160755   0.365710477456   0.365487790342   
      0.365202975882   0.364857170659   0.364451778187   0.363988476737   0.36346922784   
      0.362896285084   0.362272202759   0.361599843817   0.360882386576   0.360123329534   
      0.359326493622   0.35849602123   0.357636371317   0.356752309978   0.355848895916   
      0.354931460353   0.354005581087   0.353077050543   0.352151837883   0.351236045441   
      0.350335859972   0.349457499393   0.348607155891   0.347790936409   0.347014801636   
      0.346284504665   0.345605530502   0.344983037555   0.344421802127   0.343926166857   
      0.343499993862   0.343146623205   0.342868837187   0.342668830784   0.342548188479   
      0.342507867633   0.342548188479   0.342668830784   0.342868837187   0.343146623205   
      0.343499993862   0.343926166857   0.344421802127   0.344983037555   0.345605530502   
      0.346284504665   0.347014801636   0.347790936409   0.348607155891   0.349457499393   
      0.350335859972   0.351236045441   0.352151837883   0.353077050543   0.354005581087   
      0.354931460353   0.355848895916   0.356752309978   0.357636371317   0.35849602123   
      0.359326493622   0.360123329534   0.360882386576   0.361599843817   0.362272202759   
      0.362896285084   0.36346922784   0.363988476737   0.364451778187   0.364857170659   
      0.365202975882   0.365487790342   0.365710477456   0.365870160755   0.365966218323   
      0.359017136684   0.358984302589   0.358885930359   0.358722410987   0.358494398881   
      0.358202815882   0.35784885669   0.357433995474   0.3569599934   0.356428906721   
      0.355843095019   0.355205229122   0.354518298135   0.353785614994   0.353010819877   
      0.352197880812   0.351351090779   0.350475060671   0.34957470748   0.348655237222   
      0.347722122196   0.346781072358   0.345838000764   0.344898983257   0.343970212774   
      0.343057948877   0.3421684633   0.341307982469   0.340482628081   0.339698356887   
      0.338960900867   0.338275708917   0.337647891109   0.337082166445   0.336582814883   
      0.336153634243   0.335797902429   0.33551834528   0.335317110205   0.335195745683   
      0.335155186637   0.335195745683   0.335317110205   0.33551834528   0.335797902429   
      0.336153634243   0.336582814883   0.337082166445   0.337647891109   0.338275708917   
      0.338960900867   0.339698356887   0.340482628081   0.341307982469   0.3421684633   
      0.343057948877   0.343970212774   0.344898983257   0.345838000764   0.346781072358   
      0.347722122196   0.348655237222   0.34957470748   0.350475060671   0.351351090779   
      0.352197880812   0.353010819877   0.353785614994   0.354518298135   0.355205229122   
      0.355843095019   0.356428906721   0.3569599934   0.357433995474   0.35784885669   
      0.358202815882   0.358494398881   0.358722410987   0.358885930359   0.358984302589   
      0.355630221247   0.355597051121   0.355497673999   0.355332490473   0.355102170916   
      0.35480765944   0.354450179237   0.35403123906   0.353552640565   0.353016486159   
      0.352425186916   0.351781470068   0.35108838552   0.350349310746   0.349567953437   
      0.348748351197   0.347894867611   0.347012184045   0.346105286578   0.345179447582   
      0.344240201613   0.343293315408   0.342344752029   0.341400629349   0.340467173355   
      0.339550666904   0.338657394795   0.33779358614   0.336965355175   0.336178641643   
      0.335439151954   0.334752302191   0.334123164009   0.333556414249   0.333056288998   
      0.332626542587   0.332270411894   0.331990586146   0.331789182293   0.33166772596   
      0.33162713791   0.33166772596   0.331789182293   0.331990586146   0.332270411894   
      0.332626542587   0.333056288998   0.333556414249   0.334123164009   0.334752302191   
      0.335439151954   0.336178641643   0.336965355175   0.33779358614   0.338657394795   
      0.339550666904   0.340467173355   0.341400629349   0.342344752029   0.343293315408   
      0.344240201613   0.345179447582   0.346105286578   0.347012184045   0.347894867611   
      0.348748351197   0.349567953437   0.350349310746   0.35108838552   0.351781470068   
      0.352425186916   0.353016486159   0.353552640565   0.35403123906   0.354450179237   
      0.35480765944   0.355102170916   0.355332490473   0.355497673999   0.355597051121   
      0.355630221247   0.355597051121   0.355497673999   0.355332490473   0.355102170916   
      0.35480765944   0.354450179237   0.35403123906   0.353552640565   0.353016486159   
      0.352425186916   0.351781470068   0.35108838552   0.350349310746   0.349567953437   
      0.348748351197   0.347894867611   0.347012184045   0.346105286578   0.345179447582   
      0.344240201613   0.343293315408   0.342344752029   0.341400629349   0.340467173355   
      0.339550666904   0.338657394795   0.33779358614   0.336965355175   0.336178641643   
      0.335439151954   0.334752302191   0.334123164009   0.333556414249   0.333056288998   
      0.332626542587   0.332270411894   0.331990586146   0.331789182293   0.33166772596   
      0.33162713791   0.33166772596   0.331789182293   0.331990586146   0.332270411894   
      0.332626542587   0.333056288998   0.333556414249   0.334123164009   0.334752302191   
      0.335439151954   0.336178641643   0.336965355175   0.33779358614   0.338657394795   
      0.339550666904   0.340467173355   0.341400629349   0.342344752029   0.343293315408   
      0.344240201613   0.345179447582   0.346105286578   0.347012184045   0.347894867611   
      0.348748351197   0.349567953437   0.350349310746   0.35108838552   0.351781470068   
      0.352425186916   0.353016486159   0.353552640565   0.35403123906   0.354450179237   
      0.35480765944   0.355102170916   0.355332490473   0.355497673999   0.355597051121   
      0.359017136684   0.358984302589   0.358885930359   0.358722410987   0.358494398881   
      0.358202815882   0.35784885669   0.357433995474   0.3569599934   0.356428906721   
      0.355843095019   0.355205229122   0.354518298135   0.353785614994   0.353010819877   
      0.352197880812   0.351351090779   0.350475060671   0.34957470748   0.348655237222   
      0.347722122196   0.346781072358   0.345838000764   0.344898983257   0.343970212774   
      0.343057948877   0.3421684633   0.341307982469   0.340482628081   0.339698356887   
      0.338960900867   0.338275708917   0.337647891109   0.337082166445   0.336582814883   
      0.336153634243   0.335797902429   0.33551834528   0.335317110205   0.335195745683   
      0.335155186637   0.335195745683   0.335317110205   0.33551834528   0.335797902429   
      0.336153634243   0.336582814883   0.337082166445   0.337647891109   0.338275708917   
      0.338960900867   0.339698356887   0.340482628081   0.341307982469   0.3421684633   
      0.343057948877   0.343970212774   0.344898983257   0.345838000764   0.346781072358   
      0.347722122196   0.348655237222   0.34957470748   0.350475060671   0.351351090779   
      0.352197880812   0.353010819877   0.353785614994   0.354518298135   0.355205229122   
      0.355843095019   0.356428906721   0.3569599934   0.357433995474   0.35784885669   
      0.358202815882   0.358494398881   0.358722410987   0.358885930359   0.358984302589   
      0.365998278693   0.365966218323   0.365870160755   0.365710477456   0.365487790342   
      0.365202975882   0.364857170659   0.364451778187   0.363988476737   0.36346922784   
      0.362896285084   0.362272202759   0.361599843817   0.360882386576   0.360123329534   
      0.359326493622   0.35849602123   0.357636371317   0.356752309978   0.355848895916   
      0.354931460353   0.354005581087   0.353077050543   0.352151837883   0.351236045441   
      0.350335859972   0.349457499393   0.348607155891   0.347790936409   0.347014801636   
      0.346284504665   0.345605530502   0.344983037555   0.344421802127   0.343926166857   
      0.343499993862   0.343146623205   0.342868837187   0.342668830784   0.342548188479   
      0.342507867633   0.342548188479   0.342668830784   0.342868837187   0.343146623205   
      0.343499993862   0.343926166857   0.344421802127   0.344983037555   0.345605530502   
      0.346284504665   0.347014801636   0.347790936409   0.348607155891   0.349457499393   
      0.350335859972   0.351236045441   0.352151837883   0.353077050543   0.354005581087   
      0.354931460353   0.355848895916   0.356752309978   0.357636371317   0.35849602123   
      0.359326493622   0.360123329534   0.360882386576   0.361599843817   0.362272202759   
      0.362896285084   0.36346922784   0.363988476737   0.364451778187   0.364857170659   
      0.365202975882   0.365487790342   0.365710477456   0.365870160755   0.365966218323   
      0.376906889741   0.376876240402   0.3767844059   0.376631727629   0.376418777418   
      0.376146361691   0.375815527144   0.375427567744   0.37498403284   0.374486736091   
      0.373937764874   0.373339489748   0.372694573504   0.372005979264   0.371276977019   
      0.370511147988   0.369712386108   0.36888489599   0.368033186683   0.367162060628   
      0.366276597297   0.365382131079   0.364484223179   0.363588627425   0.362701250111   
      0.361828104188   0.360975258344   0.360148781697   0.359354685012   0.358598859498   
      0.357887014314   0.357224614012   0.35661681711   0.356068416972   0.355583786092   
      0.355166824765   0.354820915017   0.354548880497   0.354352952949   0.354234745685   
      0.35419523442   0.354234745685   0.354352952949   0.354548880497   0.354820915017   
      0.355166824765   0.355583786092   0.356068416972   0.35661681711   0.357224614012   
      0.357887014314   0.358598859498   0.359354685012   0.360148781697   0.360975258344   
      0.361828104188   0.362701250111   0.363588627425   0.364484223179   0.365382131079   
      0.366276597297   0.367162060628   0.368033186683   0.36888489599   0.369712386108   
      0.370511147988   0.371276977019   0.372005979264   0.372694573504   0.373339489748   
      0.373937764874   0.374486736091   0.37498403284   0.375427567744   0.375815527144   
      0.376146361691   0.376418777418   0.376631727629   0.3767844059   0.376876240402   
      0.39207090691   0.392042579911   0.391957698714   0.391816563568   0.391619677684   
      0.391367751357   0.391061707614   0.390702689223   0.390292066895   0.389831448425   
      0.389322688486   0.388767898706   0.388169457619   0.387530019998   0.386852525041   
      0.386140202798   0.385396578226   0.38462547219   0.383830998769   0.38301755821   
      0.382189824955   0.381352730243   0.380511438888   0.379671320026   0.378837911752   
      0.378016879792   0.377213970567   0.376434959192   0.375685593173   0.374971532726   
      0.374298288808   0.37367116004   0.373095169787   0.372575004667   0.372114955746   
      0.37171886362   0.371390068496   0.371131366234   0.370944971223   0.370832486783   
      0.370794883626   0.370832486783   0.370944971223   0.371131366234   0.371390068496   
      0.37171886362   0.372114955746   0.372575004667   0.373095169787   0.37367116004   
      0.374298288808   0.374971532726   0.375685593173   0.376434959192   0.377213970567   
      0.378016879792   0.378837911752   0.379671320026   0.380511438888   0.381352730243   
      0.382189824955   0.38301755821   0.383830998769   0.38462547219   0.385396578226   
      0.386140202798   0.386852525041   0.387530019998   0.388169457619   0.388767898706   
      0.389322688486   0.389831448425   0.390292066895   0.390702689223   0.391061707614   
      0.391367751357   0.391619677684   0.391816563568   0.391957698714   0.392042579911   
      0.411475974563   0.411451080616   0.411376481625   0.411252426931   0.411079334729   