<?xml version="1.0"?>
<VTKFile type="ImageData" version="0.1" byte_order="LittleEndian">
  <ImageData WholeExtent="0 79 0 19 0 19" Origin="0 0 0" Spacing="1 1 1">
  <Piece Extent="0 79 0 19 0 19">
    <PointData Scalars="density">
       <DataArray type="Float32" Name="bluedensity" NumberOfComponents="1" format="ascii">
      0   0   0   0   0   
      0   0   0   0   0   
      0   0   0   0   0   
      0   0   0   0   0   
      0   0   0   0   0   
      0   0   0   0   0   
      0   0   0   0   0   
      0   0   0   0   0   
      0   0   0   0   0   
      0   0   0   0   0   
      0   0   0   0   0   
      0   0   0   0   0   
      0   0   0   0   0   
      0   0   0   0   0   
      0   0   0   0   0   
      0   0   0   0   0   
      0   0   0   0   0   
      0   0   0   0   0   
      0   0   0   0   0   
      0   0   0   0   0   
      0   0   0   0   0   
      0   0   0   0   0   
      0   0   0   0   0   
      0   0   0   0   0   
      0   0   0   0   0   
      0   0   0   0   0   
      0   0   0   0   0   
      0   0   0   0   0   
      0   0   0   0   0   
      0   0   0   0   0   
      0   0   0   0   0   
      0   0   0   0   0   
      0   0   0   0   0   
      0   0   0   0   0   
      0   0   0   0   0   
      0   0   0   0   0   
      0   0   0   0   0   
      0   0   0   0   0   
      0   0   0   0   0   
      0   0   0   0   0   
      0   0   0   0   0   
      0   0   0   0   0   
      0   0   0   0   0   
      0   0   0   0   0   
      0   0   0   0   0   
      0   0   0   0   0   
      0   0   0   0   0   
      0   0   0   0   0   
      0   0   0   0   0   
      0   0   0   0   0   
      0   0   0   0   0   
      0   0   0   0   0   
      0   0   0   0   0   
      0   0   0   0   0   
      0   0   0   0   0   
      0   0   0   0   0   
      0   0   0   0   0   
      0   0   0   0   0   
      0   0   0   0   0   
      0   0   0   0   0   
      0   0   0   0   0   
      0   0   0   0   0   
      0   0   0   0   0   
      0   0   0   0   0   
      0   0   0   0   0   
      0   0   0   0   0   
      0   0   0   0   0   
      0   0   0   0   0   
      0   0   0   0   0   
      0   0   0   0   0   
      0   0   0   0   0   
      0   0   0   0   0   
      0   0   0   0   0   
      0   0   0   0   0   
      0   0   0   0   0   
      0   0   0   0   0   
      0   0   0   0   0   
      0   0   0   0   0   
      0   0   0   0   0   
      0   0   0   0   0   
      0   0   0   0   0   
      0   0   0   0   0   
      0   0   0   0   0   
      0   0   0   0   0   
      0   0   0   0   0   
      0   0   0   0   0   
      0   0   0   0   0   
      0   0   0   0   0   
      0   0   0   0   0   
      0   0   0   0   0   
      0   0   0   0   0   
      0   0   0   0   0   
      0   0   0   0   0   
      0   0   0   0   0   
      0   0   0   0   0   
      0   0   0   0   0   
      0   0   0   0   0   
      0   0   0   0   0   
      0   0   0   0   0   
      0   0   0   0   0   
      0   0   0   0   0   
      0   0   0   0   0   
      0   0   0   0   0   
      0   0   0   0   0   
      0   0   0   0   0   
      0   0   0   0   0   
      0   0   0   0   0   
      0   0   0   0   0   
      0   0   0   0   0   
      0   0   0   0   0   
      0   0   0   0   0   
      0   0   0   0   0   
      0   0   0   0   0   
      0   0   0   0   0   
      0   0   0   0   0   
      0   0   0   0   0   
      0   0   0   0   0   
      0   0   0   0   0   
      0   0   0   0   0   
      0   0   0   0   0   
      0   0   0   0   0   
      0   0   0   0   0   
      0   0   0   0   0   
      0   0   0   0   0   
      0   0   0   0   0   
      0   0   0   0   0   
      0   0   0   0   0   
      0   0   0   0   0   
      0   0   0   0   0   
      0   0   0   0   0   
      0   0   0   0   0   
      0   0   0   0   0   
      0   0   0   0   0   
      0   0   0   0   0   
      0   0   0   0   0   
      0   0   0   0   0   
      0   0   0   0   0   
      0   0   0   0   0   
      0   0   0   0   0   
      0   0   0   0   0   
      0   0   0   0   0   
      0   0   0   0   0   
      0   0   0   0   0   
      0   0   0   0   0   
      0   0   0   0   0   
      0   0   0   0   0   
      0   0   0   0   0   
      0   0   0   0   0   
      0   0   0   0   0   
      0   0   0   0   0   
      0   0   0   0   0   
      0   0   0   0   0   
      0   0   0   0   0   
      0   0   0   0   0   
      0   0   0   0   0   
      0   0   0   0   0   
      0   0   0   0   0   
      0   0   0   0   0   
      0   0   0   0   0   
      0   0   0   0   0   
      0   0   0   0   0   
      0   0   0   0   0   
      0   0   0   0   0   
      0   0   0   0   0   
      0   0   0   0   0   
      0   0   0   0   0   
      0   0   0   0   0   
      0   0   0   0   0   
      0   0   0   0   0   
      0   0   0   0   0   
      0   0   0   0   0   
      0   0   0   0   0   
      0   0   0   0   0   
      0   0   0   0   0   
      0   0   0   0   0   
      0   0   0   0   0   
      0   0   0   0   0   
      0   0   0   0   0   
      0   0   0   0   0   
      0   0   0   0   0   
      0   0   0   0   0   
      0   0   0   0   0   
      0   0   0   0   0   
      0   0   0   0   0   
      0   0   0   0   0   
      0   0   0   0   0   
      0   0   0   0   0   
      0   0   0   0   0   
      0   0   0   0   0   
      0   0   0   0   0   
      0   0   0   0   0   
      0   0   0   0   0   
      0   0   0   0   0   
      0   0   0   0   0   
      0   0   0   0   0   
      0   0   0   0   0   
      0   0   0   0   0   
      0   0   0   0   0   
      0   0   0   0   0   
      0   0   0   0   0   
      0   0   0   0   0   
      0   0   0   0   0   
      0   0   0   0   0   
      0   0   0   0   0   
      0   0   0   0   0   
      0   0   0   0   0   
      0   0   0   0   0   
      0   0   0   0   0   
      0   0   0   0   0   
      0   0   0   0   0   
      0   0   0   0   0   
      0   0   0   0   0   
      0   0   0   0   0   
      0   0   0   0   0   
      0   0   0   0   0   
      0   0   0   0   0   
      0   0   0   0   0   
      0   0   0   0   0   
      0   0   0   0   0   
      0   0   0   0   0   
      0   0   0   0   0   
      0   0   0   0   0   
      0   0   0   0   0   
      0   0   0   0   0   
      0   0   0   0   0   
      0   0   0   0   0   
      0   0   0   0   0   
      0   0   0   0   0   
      0   0   0   0   0   
      0   0   0   0   0   
      0   0   0   0   0   
      0   0   0   0   0   
      0   0   0   0   0   
      0   0   0   0   0   
      0   0   0   0   0   
      0   0   0   0   0   
      0   0   0   0   0   
      0   0   0   0   0   
      0   0   0   0   0   
      0   0   0   0   0   
      0   0   0   0   0   
      0   0   0   0   0   
      0   0   0   0   0   
      0   0   0   0   0   
      0   0   0   0   0   
      0   0   0   0   0   
      0   0   0   0   0   
      0   0   0   0   0   
      0   0   0   0   0   
      0   0   0   0   0   
      0   0   0   0   0   
      0   0   0   0   0   
      0   0   0   0   0   
      0   0   0   0   0   
      0   0   0   0   0   
      0   0   0   0   0   
      0   0   0   0   0   
      0   0   0   0   0   
      0   0   0   0   0   
      0   0   0   0   0   
      0   0   0   0   0   
      0   0   0   0   0   
      0   0   0   0   0   
      0   0   0   0   0   
      0   0   0   0   0   
      0   0   0   0   0   
      0   0   0   0   0   
      0   0   0   0   0   
      0   0   0   0   0   
      0   0   0   0   0   
      0   0   0   0   0   
      0   0   0   0   0   
      0   0   0   0   0   
      0   0   0   0   0   
      0   0   0   0   0   
      0   0   0   0   0   
      0   0   0   0   0   
      0   0   0   0   0   
      0   0   0   0   0   
      0   0   0   0   0   
      0   0   0   0   0   
      0   0   0   0   0   
      0   0   0   0   0   
      0   0   0   0   0   
      0   0   0   0   0   
      0   0   0   0   0   
      0   0   0   0   0   
      0   0   0   0   0   
      0   0   0   0   0   
      0   0   0   0   0   
      0   0   0   0   0   
      0   0   0   0   0   
      0   0   0   0   0   
      0   0   0   0   0   
      0   0   0   0   0   
      0   0   0   0   0   
      0   0   0   0   0   
      0   0   0   0   0   
      0   0   0   0   0   
      0   0   0   0   0   
      0   0   0   0   0   
      0   0   0   0   0   
      0   0   0   0   0   
      0   0   0   0   0   
      0   0   0   0   0   
      0   0   0   0   0   
      0   0   0   0   0   
      0   0   0   0   0   
      0   0   0   0   0   
      0   0   0   0   0   
      0   0   0   0   0   
      0   0   0   0   0   
      0   0   0   0   0   
      0   0   0   0   0   
      0   0   0   0   0   
      0   0   0   0   0   
      0   0   0   0   0   
      0   0   0   0   0   
      0   0   0   0   0   
      0   0   0   0   0   
      0   0   0   0   0   
      0   0   0   0   0   
      0   0   0   0   0   
      0   0   0   0   0   
      0   0   0   0   0   
      0   0   0   0   0   
      0   0   0   0   0   
      0   0   0   0   0   
      0   0   0   0   0   
      0   0   0   0   0   
      0   0   0   0   0   
      0   0   0   0   0   
      0   0   0   0   0   
      0   0   0   0   0   
      0   0   0   0   0   
      0   0   0   0   0   
      0.57455923803   0.574544293823   0.574499491796   0.574424924351   0.574320747586   
      0.574187184438   0.574024529108   0.573833152766   0.573613510556   0.573366149873   
      0.573091719911   0.5727909824   0.572464823449   0.572114266342   0.57174048506   
      0.571344818252   0.570928783255   0.5704940897   0.570042652128   0.56957660093   
      0.56909829088   0.568610306425   0.568115462871   0.567616802629   0.567117585687   
      0.566621273618   0.566131506572   0.565652072914   0.565186871437   0.564739866407   
      0.564315035994   0.563916315036   0.563547533381   0.563212351388   0.562914194388   
      0.562656188117   0.562441097201   0.562271268785   0.56214858328   0.562074414023   
      0.562049597322   0.562074414023   0.56214858328   0.562271268785   0.562441097201   
      0.562656188117   0.562914194388   0.563212351388   0.563547533381   0.563916315036   
      0.564315035994   0.564739866407   0.565186871437   0.565652072914   0.566131506572   
      0.566621273618   0.567117585687   0.567616802629   0.568115462871   0.568610306425   
      0.56909829088   0.56957660093   0.570042652128   0.5704940897   0.570928783255   
      0.571344818252   0.57174048506   0.572114266342   0.572464823449   0.5727909824   
      0.573091719911   0.573366149873   0.573613510556   0.573833152766   0.574024529108   
      0.574187184438   0.574320747586   0.574424924351   0.574499491796   0.574544293823   
      0.46325402882   0.463233317697   0.46317122551   0.463067876744   0.462923481997   
      0.462738342686   0.462512857632   0.462247531557   0.461942985465   0.461599968888   
      0.461219373936   0.460802251033   0.460349826172   0.459863519433   0.459344964407   
      0.458796028078   0.45821883055   0.457615763931   0.456989509501   0.45634305221   
      0.455679691425   0.455003046799   0.454317058083   0.45362597778   0.452934355593   
      0.452247013827   0.451569013147   0.4509056084   0.450262194594   0.449644243558   
      0.449057232225   0.448506563934   0.44799748456   0.447534995592   0.447123766617   
      0.446768049758   0.446471598756   0.446237595271   0.446068584832   0.445966424606   
      0.445932244735   0.445966424606   0.446068584832   0.446237595271   0.446471598756   
      0.446768049758   0.447123766617   0.447534995592   0.44799748456   0.448506563934   
      0.449057232225   0.449644243558   0.450262194594   0.4509056084   0.451569013147   
      0.452247013827   0.452934355593   0.45362597778   0.454317058083   0.455003046799   
      0.455679691425   0.45634305221   0.456989509501   0.457615763931   0.45821883055   
      0.458796028078   0.459344964407   0.459863519433   0.460349826172   0.460802251033   
      0.461219373936   0.461599968888   0.461942985465   0.462247531557   0.462512857632   
      0.462738342686   0.462923481997   0.463067876744   0.46317122551   0.463233317697   
      0.438908094496   0.438881248691   0.438800768338   0.438666825865   0.43847971278   
      0.43823984586   0.437947775816   0.43760419841   0.437209967981   0.436766113314   
      0.436273855715   0.435734629092   0.435150101762   0.434522199583   0.433853129879   
      0.433145405514   0.432401868268   0.43162571056   0.430820494397   0.429990166302   
      0.429139066889   0.428271933725   0.427393896123   0.426510460631   0.425627486172   
      0.424751148028   0.423887890266   0.42304436657   0.42222736994   0.421443752219   
      0.420700334856   0.420003812803   0.419360653817   0.418776995729   0.418258544444   
      0.417810475535   0.417437342226   0.417142992444   0.41693049736   0.416802093512   
      0.41675914022   0.416802093512   0.41693049736   0.417142992444   0.417437342226   
      0.417810475535   0.418258544444   0.418776995729   0.419360653817   0.420003812803   
      0.420700334856   0.421443752219   0.42222736994   0.42304436657   0.423887890266   
      0.424751148028   0.425627486172   0.426510460631   0.427393896123   0.428271933725   
      0.429139066889   0.429990166302   0.430820494397   0.43162571056   0.432401868268   
      0.433145405514   0.433853129879   0.434522199583   0.435150101762   0.435734629092   
      0.436273855715   0.436766113314   0.437209967981   0.43760419841   0.437947775816   
      0.43823984586   0.43847971278   0.438666825865   0.438800768338   0.438881248691   
      0.414807963229   0.414774954931   0.414676007263   0.414511353416   0.4142813871   
      0.413986670106   0.413627942861   0.413206137906   0.412722396212   0.412178086181   
      0.411574825103   0.410914502759   0.410199306716   0.409431748764   0.408614691743   
      0.407751375868   0.4068454435   0.405900961103   0.40492243705   0.403914833781   
      0.402883572808   0.401834531073   0.400774027277   0.399708796995   0.398645955704   
      0.397592949215   0.396557491468   0.395547490166   0.394570961213   0.393635933476   
      0.392750345814   0.391921938726   0.391158143229   0.390465969765   0.389851899945   
      0.389321783896   0.388880745773   0.388533099782   0.388282278694   0.388130776529   
      0.3880801067   0.388130776529   0.388282278694   0.388533099782   0.388880745773   
      0.389321783896   0.389851899945   0.390465969765   0.391158143229   0.391921938726   
      0.392750345814   0.393635933476   0.394570961213   0.395547490166   0.396557491468   
      0.397592949215   0.398645955704   0.399708796995   0.400774027277   0.401834531073   
      0.402883572808   0.403914833781   0.40492243705   0.405900961103   0.4068454435   
      0.407751375868   0.408614691743   0.409431748764   0.410199306716   0.410914502759   
      0.411574825103   0.412178086181   0.412722396212   0.413206137906   0.413627942861   
      0.413986670106   0.4142813871   0.414511353416   0.414676007263   0.414774954931   
      0.395893339033   0.395855623463   0.395742573899   0.395554483495   0.395291846536   
      0.394955366947   0.394545970112   0.394064817911   0.393513326799   0.392893188705   
      0.392206394402   0.391455258913   0.390642448344   0.389771007398   0.388844386651   
      0.38786646846   0.38684159026   0.385774563785   0.384670688707   0.38353575908   
      0.382376061039   0.381198360281   0.380009878106   0.37881825507   0.377631501749   
      0.376457936562   0.375306111158   0.374184724411   0.373102526586   0.372068215709   
      0.371090328525   0.37017712867   0.369336494797   0.368575811337   0.367901864462   
      0.367320745517   0.366837763909   0.366457371076   0.366183096807   0.366017498868   
      0.365962126589   0.366017498868   0.366183096807   0.366457371076   0.366837763909   
      0.367320745517   0.367901864462   0.368575811337   0.369336494797   0.37017712867   
      0.371090328525   0.372068215709   0.373102526586   0.374184724411   0.375306111158   
      0.376457936562   0.377631501749   0.37881825507   0.380009878106   0.381198360281   
      0.382376061039   0.38353575908   0.384670688707   0.385774563785   0.38684159026   
      0.38786646846   0.388844386651   0.389771007398   0.390642448344   0.391455258913   
      0.392206394402   0.392893188705   0.393513326799   0.394064817911   0.394545970112   
      0.394955366947   0.395291846536   0.395554483495   0.395742573899   0.395855623463   
      0.381067882636   0.381026918825   0.380904141791   0.380699896568   0.380414764321   
      0.380049571454   0.379605402213   0.37908361465   0.378485859691   0.377814103011   
      0.377070649249   0.376258168   0.375379720839   0.374438788448   0.373439296774   
      0.372385640913   0.371282705293   0.370135878596   0.368951061786   0.367734667625   
      0.366493610165   0.365235282901   0.363967524599   0.362698572224   0.361437000885   
      0.360191651293   0.358971545784   0.357785794521   0.356643493941   0.355553619916   
      0.354524918288   0.353565795512   0.352684212072   0.351887581069   0.351182674075   
      0.350575535914   0.350071409626   0.349674672438   0.349388783229   0.3492162417   
      0.349158559277   0.3492162417   0.349388783229   0.349674672438   0.350071409626   
      0.350575535914   0.351182674075   0.351887581069   0.352684212072   0.353565795512   
      0.354524918288   0.355553619916   0.356643493941   0.357785794521   0.358971545784   
      0.360191651293   0.361437000885   0.362698572224   0.363967524599   0.365235282901   
      0.366493610165   0.367734667625   0.368951061786   0.370135878596   0.371282705293   
      0.372385640913   0.373439296774   0.374438788448   0.375379720839   0.376258168   
      0.377070649249   0.377814103011   0.378485859691   0.37908361465   0.379605402213   
      0.380049571454   0.380414764321   0.380699896568   0.380904141791   0.381026918825   
      0.370369958812   0.370326973364   0.370198144714   0.369983857866   0.369684760853   
      0.3693017742   0.368836103981   0.368289258277   0.367663066736   0.366959702832   
      0.366181708281   0.36533201893   0.364413991248   0.363431428375   0.362388604479   
      0.361290286042   0.360141748497   0.358948786585   0.357717716788   0.356455370227   
      0.355169074633   0.353866624263   0.352556237066   0.351246498854   0.349946294871   
      0.348664729685   0.347411036962   0.346194481187   0.345024253782   0.343909366382   
      0.342858544056   0.341880121204   0.340981942602   0.340171271649   0.339454707416   
      0.338838111571   0.338326545755   0.337924219544   0.33763444881   0.337459624067   
      0.337401188337   0.337459624067   0.33763444881   0.337924219544   0.338326545755   
      0.338838111571   0.339454707416   0.340171271649   0.340981942602   0.341880121204   
      0.342858544056   0.343909366382   0.345024253782   0.346194481187   0.347411036962   
      0.348664729685   0.349946294871   0.351246498854   0.352556237066   0.353866624263   
      0.355169074633   0.356455370227   0.357717716788   0.358948786585   0.360141748497   
      0.361290286042   0.362388604479   0.363431428375   0.364413991248   0.36533201893   
      0.366181708281   0.366959702832   0.367663066736   0.368289258277   0.368836103981   
      0.3693017742   0.369684760853   0.369983857866   0.370198144714   0.370326973364   
      0.363507215059   0.363463092359   0.363330860926   0.363110932711   0.362804000809   
      0.36241104911   0.361933365599   0.361372559056   0.360730578816   0.360009737123   
      0.359212733467   0.358342680138   0.357403128022   0.356398091527   0.355332071276   
      0.354210073105   0.353037621728   0.351820767411   0.350566083983   0.349280656654   
      0.34797205834   0.346648313555   0.345317849372   0.343989433552   0.342672100501   
      0.341375066379   0.340107635228   0.338879098511   0.337698630756   0.33657518421   
      0.335517385355   0.334533435937   0.333631020794   0.332817224234   0.332098456191   
      0.33148038876   0.330967903205   0.330565047093   0.330275000878   0.330100053128   
      0.330041583551   0.330100053128   0.330275000878   0.330565047093   0.330967903205   
      0.33148038876   0.332098456191   0.332817224234   0.333631020794   0.334533435937   
      0.335517385355   0.33657518421   0.337698630756   0.338879098511   0.340107635228   
      0.341375066379   0.342672100501   0.343989433552   0.345317849372   0.346648313555   
      0.34797205834   0.349280656654   0.350566083983   0.351820767411   0.353037621728   
      0.354210073105   0.355332071276   0.356398091527   0.357403128022   0.358342680138   
      0.359212733467   0.360009737123   0.360730578816   0.361372559056   0.361933365599   
      0.36241104911   0.362804000809   0.363110932711   0.363330860926   0.363463092359   
      0.360172750861   0.360128123656   0.35999438322   0.359771955069   0.359461554963   
      0.359064198653   0.358581215273   0.358014264139   0.357365354565   0.356636868219   
      0.355831583351   0.354952700085   0.354003865777   0.352989199236   0.351913312442   
      0.350781328226   0.349598892265   0.348372177703   0.347107880751   0.345813205765   
      0.344495838565   0.34316390716   0.341825929513   0.340490748597   0.339167455583   
      0.337865302656   0.336593607527   0.335361652145   0.334178578464   0.333053284192   
      0.331994321414   0.33100980068   0.330107302703   0.329293799291   0.328575584496   
      0.327958216357   0.32744646908   0.327044295041   0.326754795723   0.326580200552   
      0.326521852631   0.326580200552   0.326754795723   0.327044295041   0.32744646908   
      0.327958216357   0.328575584496   0.329293799291   0.330107302703   0.33100980068   
      0.331994321414   0.333053284192   0.334178578464   0.335361652145   0.336593607527   
      0.337865302656   0.339167455583   0.340490748597   0.341825929513   0.34316390716   
      0.344495838565   0.345813205765   0.347107880751   0.348372177703   0.349598892265   
      0.350781328226   0.351913312442   0.352989199236   0.354003865777   0.354952700085   
      0.355831583351   0.356636868219   0.357365354565   0.358014264139   0.358581215273   
      0.359064198653   0.359461554963   0.359771955069   0.35999438322   0.360128123656   
      0.360172750861   0.360128123656   0.35999438322   0.359771955069   0.359461554963   
      0.359064198653   0.358581215273   0.358014264139   0.357365354565   0.356636868219   
      0.355831583351   0.354952700085   0.354003865777   0.352989199236   0.351913312442   
      0.350781328226   0.349598892265   0.348372177703   0.347107880751   0.345813205765   
      0.344495838565   0.34316390716   0.341825929513   0.340490748597   0.339167455583   
      0.337865302656   0.336593607527   0.335361652145   0.334178578464   0.333053284192   
      0.331994321414   0.33100980068   0.330107302703   0.329293799291   0.328575584496   
      0.327958216357   0.32744646908   0.327044295041   0.326754795723   0.326580200552   
      0.326521852631   0.326580200552   0.326754795723   0.327044295041   0.32744646908   
      0.327958216357   0.328575584496   0.329293799291   0.330107302703   0.33100980068   
      0.331994321414   0.333053284192   0.334178578464   0.335361652145   0.336593607527   
      0.337865302656   0.339167455583   0.340490748597   0.341825929513   0.34316390716   
      0.344495838565   0.345813205765   0.347107880751   0.348372177703   0.349598892265   
      0.350781328226   0.351913312442   0.352989199236   0.354003865777   0.354952700085   
      0.355831583351   0.356636868219   0.357365354565   0.358014264139   0.358581215273   
      0.359064198653   0.359461554963   0.359771955069   0.35999438322   0.360128123656   
      0.363507215059   0.363463092359   0.363330860926   0.363110932711   0.362804000809   
      0.36241104911   0.361933365599   0.361372559056   0.360730578816   0.360009737123   
      0.359212733467   0.358342680138   0.357403128022   0.356398091527   0.355332071276   
      0.354210073105   0.353037621728   0.351820767411   0.350566083983   0.349280656654   
      0.34797205834   0.346648313555   0.345317849372   0.343989433552   0.342672100501   
      0.341375066379   0.340107635228   0.338879098511   0.337698630756   0.33657518421   
      0.335517385355   0.334533435937   0.333631020794   0.332817224234   0.332098456191   
      0.33148038876   0.330967903205   0.330565047093   0.330275000878   0.330100053128   
      0.330041583551   0.330100053128   0.330275000878   0.330565047093   0.330967903205   
      0.33148038876   0.332098456191   0.332817224234   0.333631020794   0.334533435937   
      0.335517385355   0.33657518421   0.337698630756   0.338879098511   0.340107635228   
      0.341375066379   0.342672100501   0.343989433552   0.345317849372   0.346648313555   
      0.34797205834   0.349280656654   0.350566083983   0.351820767411   0.353037621728   
      0.354210073105   0.355332071276   0.356398091527   0.357403128022   0.358342680138   
      0.359212733467   0.360009737123   0.360730578816   0.361372559056   0.361933365599   
      0.36241104911   0.362804000809   0.363110932711   0.363330860926   0.363463092359   
      0.370369958812   0.370326973364   0.370198144714   0.369983857866   0.369684760853   
      0.3693017742   0.368836103981   0.368289258277   0.367663066736   0.366959702832   
      0.366181708281   0.36533201893   0.364413991248   0.363431428375   0.362388604479   
      0.361290286042   0.360141748497   0.358948786585   0.357717716788   0.356455370227   
      0.355169074633   0.353866624263   0.352556237066   0.351246498854   0.349946294871   
      0.348664729685   0.347411036962   0.346194481187   0.345024253782   0.343909366382   
      0.342858544056   0.341880121204   0.340981942602   0.340171271649   0.339454707416   
      0.338838111571   0.338326545755   0.337924219544   0.33763444881   0.337459624067   
      0.337401188337   0.337459624067   0.33763444881   0.337924219544   0.338326545755   
      0.338838111571   0.339454707416   0.340171271649   0.340981942602   0.341880121204   
      0.342858544056   0.343909366382   0.345024253782   0.346194481187   0.347411036962   
      0.348664729685   0.349946294871   0.351246498854   0.352556237066   0.353866624263   
      0.355169074633   0.356455370227   0.357717716788   0.358948786585   0.360141748497   
      0.361290286042   0.362388604479   0.363431428375   0.364413991248   0.36533201893   
      0.366181708281   0.366959702832   0.367663066736   0.368289258277   0.368836103981   
      0.3693017742   0.369684760853   0.369983857866   0.370198144714   0.370326973364   
      0.381067882636   0.381026918825   0.380904141791   0.380699896568   0.380414764321   
      0.380049571454   0.379605402213   0.37908361465   0.378485859691   0.377814103011   
      0.377070649249   0.376258168   0.375379720839   0.374438788448   0.373439296774   
      0.372385640913   0.371282705293   0.370135878596   0.368951061786   0.367734667625   
      0.366493610165   0.365235282901   0.363967524599   0.362698572224   0.361437000885   
      0.360191651293   0.358971545784   0.357785794521   0.356643493941   0.355553619916   
      0.354524918288   0.353565795512   0.352684212072   0.351887581069   0.351182674075   
      0.350575535914   0.350071409626   0.349674672438   0.349388783229   0.3492162417   
      0.349158559277   0.3492162417   0.349388783229   0.349674672438   0.350071409626   
      0.350575535914   0.351182674075   0.351887581069   0.352684212072   0.353565795512   
      0.354524918288   0.355553619916   0.356643493941   0.357785794521   0.358971545784   
      0.360191651293   0.361437000885   0.362698572224   0.363967524599   0.365235282901   
      0.366493610165   0.367734667625   0.368951061786   0.370135878596   0.371282705293   
      0.372385640913   0.373439296774   0.374438788448   0.375379720839   0.376258168   
      0.377070649249   0.377814103011   0.378485859691   0.37908361465   0.379605402213   
      0.380049571454   0.380414764321   0.380699896568   0.380904141791   0.381026918825   
      0.395893339033   0.395855623463   0.395742573899   0.395554483495   0.395291846536   
      0.394955366947   0.394545970112   0.394064817911   0.393513326799   0.392893188705   
      0.392206394402   0.391455258913   0.390642448344   0.389771007398   0.388844386651   
      0.38786646846   0.38684159026   0.385774563785   0.384670688707   0.38353575908   
      0.382376061039   0.381198360281   0.380009878106   0.37881825507   0.377631501749   
      0.376457936562   0.375306111158   0.374184724411   0.373102526586   0.372068215709   
      0.371090328525   0.37017712867   0.369336494797   0.368575811337   0.367901864462   
      0.367320745517   0.366837763909   0.366457371076   0.366183096807   0.366017498868   
      0.365962126589   0.366017498868   0.366183096807   0.366457371076   0.366837763909   
      0.367320745517   0.367901864462   0.368575811337   0.369336494797   0.37017712867   
      0.371090328525   0.372068215709   0.373102526586   0.374184724411   0.375306111158   
      0.376457936562   0.377631501749   0.37881825507   0.380009878106   0.381198360281   
      0.382376061039   0.38353575908   0.384670688707   0.385774563785   0.38684159026   
      0.38786646846   0.388844386651   0.389771007398   0.390642448344   0.391455258913   
      0.392206394402   0.392893188705   0.393513326799   0.394064817911   0.394545970112   
      0.394955366947   0.395291846536   0.395554483495   0.395742573899   0.395855623463   
      0.414807963229   0.414774954931   0.414676007263   0.414511353416   0.4142813871   