<?xml version="1.0"?>
<VTKFile type="ImageData" version="0.1" byte_order="LittleEndian">
  <ImageData WholeExtent="0 79 0 19 0 19" Origin="0 0 0" Spacing="1 1 1">
  <Piece Extent="0 79 0 19 0 19">
    <PointData Scalars="density">
       <DataArray type="Float32" Name="bluedensity" NumberOfComponents="1" format="ascii">
      0   0   0   0   0   
      0   0   0   0   0   
      0   0   0   0   0   
      0   0   0   0   0   
      0   0   0   0   0   
      0   0   0   0   0   
      0   0   0   0   0   
      0   0   0   0   0   
      0   0   0   0   0   
      0   0   0   0   0   
      0   0   0   0   0   
      0   0   0   0   0   
      0   0   0   0   0   
      0   0   0   0   0   
      0   0   0   0   0   
      0   0   0   0   0   
      0   0   0   0   0   
      0   0   0   0   0   
      0   0   0   0   0   
      0   0   0   0   0   
      0   0   0   0   0   
      0   0   0   0   0   
      0   0   0   0   0   
      0   0   0   0   0   
      0   0   0   0   0   
      0   0   0   0   0   
      0   0   0   0   0   
      0   0   0   0   0   
      0   0   0   0   0   
      0   0   0   0   0   
      0   0   0   0   0   
      0   0   0   0   0   
      0   0   0   0   0   
      0   0   0   0   0   
      0   0   0   0   0   
      0   0   0   0   0   
      0   0   0   0   0   
      0   0   0   0   0   
      0   0   0   0   0   
      0   0   0   0   0   
      0   0   0   0   0   
      0   0   0   0   0   
      0   0   0   0   0   
      0   0   0   0   0   
      0   0   0   0   0   
      0   0   0   0   0   
      0   0   0   0   0   
      0   0   0   0   0   
      0   0   0   0   0   
      0   0   0   0   0   
      0   0   0   0   0   
      0   0   0   0   0   
      0   0   0   0   0   
      0   0   0   0   0   
      0   0   0   0   0   
      0   0   0   0   0   
      0   0   0   0   0   
      0   0   0   0   0   
      0   0   0   0   0   
      0   0   0   0   0   
      0   0   0   0   0   
      0   0   0   0   0   
      0   0   0   0   0   
      0   0   0   0   0   
      0   0   0   0   0   
      0   0   0   0   0   
      0   0   0   0   0   
      0   0   0   0   0   
      0   0   0   0   0   
      0   0   0   0   0   
      0   0   0   0   0   
      0   0   0   0   0   
      0   0   0   0   0   
      0   0   0   0   0   
      0   0   0   0   0   
      0   0   0   0   0   
      0   0   0   0   0   
      0   0   0   0   0   
      0   0   0   0   0   
      0   0   0   0   0   
      0   0   0   0   0   
      0   0   0   0   0   
      0   0   0   0   0   
      0   0   0   0   0   
      0   0   0   0   0   
      0   0   0   0   0   
      0   0   0   0   0   
      0   0   0   0   0   
      0   0   0   0   0   
      0   0   0   0   0   
      0   0   0   0   0   
      0   0   0   0   0   
      0   0   0   0   0   
      0   0   0   0   0   
      0   0   0   0   0   
      0   0   0   0   0   
      0   0   0   0   0   
      0   0   0   0   0   
      0   0   0   0   0   
      0   0   0   0   0   
      0   0   0   0   0   
      0   0   0   0   0   
      0   0   0   0   0   
      0   0   0   0   0   
      0   0   0   0   0   
      0   0   0   0   0   
      0   0   0   0   0   
      0   0   0   0   0   
      0   0   0   0   0   
      0   0   0   0   0   
      0   0   0   0   0   
      0   0   0   0   0   
      0   0   0   0   0   
      0   0   0   0   0   
      0   0   0   0   0   
      0   0   0   0   0   
      0   0   0   0   0   
      0   0   0   0   0   
      0   0   0   0   0   
      0   0   0   0   0   
      0   0   0   0   0   
      0   0   0   0   0   
      0   0   0   0   0   
      0   0   0   0   0   
      0   0   0   0   0   
      0   0   0   0   0   
      0   0   0   0   0   
      0   0   0   0   0   
      0   0   0   0   0   
      0   0   0   0   0   
      0   0   0   0   0   
      0   0   0   0   0   
      0   0   0   0   0   
      0   0   0   0   0   
      0   0   0   0   0   
      0   0   0   0   0   
      0   0   0   0   0   
      0   0   0   0   0   
      0   0   0   0   0   
      0   0   0   0   0   
      0   0   0   0   0   
      0   0   0   0   0   
      0   0   0   0   0   
      0   0   0   0   0   
      0   0   0   0   0   
      0   0   0   0   0   
      0   0   0   0   0   
      0   0   0   0   0   
      0   0   0   0   0   
      0   0   0   0   0   
      0   0   0   0   0   
      0   0   0   0   0   
      0   0   0   0   0   
      0   0   0   0   0   
      0   0   0   0   0   
      0   0   0   0   0   
      0   0   0   0   0   
      0   0   0   0   0   
      0   0   0   0   0   
      0   0   0   0   0   
      0   0   0   0   0   
      0   0   0   0   0   
      0   0   0   0   0   
      0   0   0   0   0   
      0   0   0   0   0   
      0   0   0   0   0   
      0   0   0   0   0   
      0   0   0   0   0   
      0   0   0   0   0   
      0   0   0   0   0   
      0   0   0   0   0   
      0   0   0   0   0   
      0   0   0   0   0   
      0   0   0   0   0   
      0   0   0   0   0   
      0   0   0   0   0   
      0   0   0   0   0   
      0   0   0   0   0   
      0   0   0   0   0   
      0   0   0   0   0   
      0   0   0   0   0   
      0   0   0   0   0   
      0   0   0   0   0   
      0   0   0   0   0   
      0   0   0   0   0   
      0   0   0   0   0   
      0   0   0   0   0   
      0   0   0   0   0   
      0   0   0   0   0   
      0   0   0   0   0   
      0   0   0   0   0   
      0   0   0   0   0   
      0   0   0   0   0   
      0   0   0   0   0   
      0   0   0   0   0   
      0   0   0   0   0   
      0   0   0   0   0   
      0   0   0   0   0   
      0   0   0   0   0   
      0   0   0   0   0   
      0   0   0   0   0   
      0   0   0   0   0   
      0   0   0   0   0   
      0   0   0   0   0   
      0   0   0   0   0   
      0   0   0   0   0   
      0   0   0   0   0   
      0   0   0   0   0   
      0   0   0   0   0   
      0   0   0   0   0   
      0   0   0   0   0   
      0   0   0   0   0   
      0   0   0   0   0   
      0   0   0   0   0   
      0   0   0   0   0   
      0   0   0   0   0   
      0   0   0   0   0   
      0   0   0   0   0   
      0   0   0   0   0   
      0   0   0   0   0   
      0   0   0   0   0   
      0   0   0   0   0   
      0   0   0   0   0   
      0   0   0   0   0   
      0   0   0   0   0   
      0   0   0   0   0   
      0   0   0   0   0   
      0   0   0   0   0   
      0   0   0   0   0   
      0   0   0   0   0   
      0   0   0   0   0   
      0   0   0   0   0   
      0   0   0   0   0   
      0   0   0   0   0   
      0   0   0   0   0   
      0   0   0   0   0   
      0   0   0   0   0   
      0   0   0   0   0   
      0   0   0   0   0   
      0   0   0   0   0   
      0   0   0   0   0   
      0   0   0   0   0   
      0   0   0   0   0   
      0   0   0   0   0   
      0   0   0   0   0   
      0   0   0   0   0   
      0   0   0   0   0   
      0   0   0   0   0   
      0   0   0   0   0   
      0   0   0   0   0   
      0   0   0   0   0   
      0   0   0   0   0   
      0   0   0   0   0   
      0   0   0   0   0   
      0   0   0   0   0   
      0   0   0   0   0   
      0   0   0   0   0   
      0   0   0   0   0   
      0   0   0   0   0   
      0   0   0   0   0   
      0   0   0   0   0   
      0   0   0   0   0   
      0   0   0   0   0   
      0   0   0   0   0   
      0   0   0   0   0   
      0   0   0   0   0   
      0   0   0   0   0   
      0   0   0   0   0   
      0   0   0   0   0   
      0   0   0   0   0   
      0   0   0   0   0   
      0   0   0   0   0   
      0   0   0   0   0   
      0   0   0   0   0   
      0   0   0   0   0   
      0   0   0   0   0   
      0   0   0   0   0   
      0   0   0   0   0   
      0   0   0   0   0   
      0   0   0   0   0   
      0   0   0   0   0   
      0   0   0   0   0   
      0   0   0   0   0   
      0   0   0   0   0   
      0   0   0   0   0   
      0   0   0   0   0   
      0   0   0   0   0   
      0   0   0   0   0   
      0   0   0   0   0   
      0   0   0   0   0   
      0   0   0   0   0   
      0   0   0   0   0   
      0   0   0   0   0   
      0   0   0   0   0   
      0   0   0   0   0   
      0   0   0   0   0   
      0   0   0   0   0   
      0   0   0   0   0   
      0   0   0   0   0   
      0   0   0   0   0   
      0   0   0   0   0   
      0   0   0   0   0   
      0   0   0   0   0   
      0   0   0   0   0   
      0   0   0   0   0   
      0   0   0   0   0   
      0   0   0   0   0   
      0   0   0   0   0   
      0   0   0   0   0   
      0   0   0   0   0   
      0   0   0   0   0   
      0   0   0   0   0   
      0   0   0   0   0   
      0   0   0   0   0   
      0   0   0   0   0   
      0   0   0   0   0   
      0   0   0   0   0   
      0   0   0   0   0   
      0   0   0   0   0   
      0   0   0   0   0   
      0   0   0   0   0   
      0   0   0   0   0   
      0   0   0   0   0   
      0   0   0   0   0   
      0   0   0   0   0   
      0   0   0   0   0   
      0   0   0   0   0   
      0   0   0   0   0   
      0   0   0   0   0   
      0   0   0   0   0   
      0   0   0   0   0   
      0   0   0   0   0   
      0   0   0   0   0   
      0   0   0   0   0   
      0   0   0   0   0   
      0   0   0   0   0   
      0.572026787466   0.572018326475   0.571992976151   0.571950834605   0.571892065894   
      0.57181690081   0.571725637955   0.571618645066   0.571496360548   0.571359295166   
      0.571208033813   0.5710432373   0.570865644058   0.570676071652   0.570475418004   
      0.570264662178   0.570044864603   0.569817166586   0.56958278897   0.569343029775   
      0.569099260705   0.568852922352   0.568605518019   0.568358606041   0.568113790566   
      0.56787271076   0.567637028462   0.56740841437   0.567188532866   0.56697902568   
      0.5667814946   0.566597483542   0.566428460285   0.566275798246   0.566140758693   
      0.566024473792   0.565927930904   0.565851958517   0.565797214187   0.565764174793   
      0.565753129381   0.565764174793   0.565797214187   0.565851958517   0.565927930904   
      0.566024473792   0.566140758693   0.566275798246   0.566428460285   0.566597483542   
      0.5667814946   0.56697902568   0.567188532866   0.56740841437   0.567637028462   
      0.56787271076   0.568113790566   0.568358606041   0.568605518019   0.568852922352   
      0.569099260705   0.569343029775   0.56958278897   0.569817166586   0.570044864603   
      0.570264662178   0.570475418004   0.570676071652   0.570865644058   0.5710432373   
      0.571208033813   0.571359295166   0.571496360548   0.571618645066   0.571725637955   
      0.57181690081   0.571892065894   0.571950834605   0.571992976151   0.572018326475   
      0.459667196849   0.459655456478   0.459620280595   0.459561805125   0.459480257391   
      0.459375957267   0.459249318743   0.459100851846   0.458931164865   0.458740966795   
      0.45853106989   0.458302392228   0.458055960143   0.457792910376   0.457514491775   
      0.457222066369   0.456917109611   0.456601209598   0.456276065049   0.455943481849   
      0.455605367957   0.455263726503   0.454920646931   0.454578294065   0.454238895042   
      0.453904724089   0.453578085203   0.453261292844   0.45295665083   0.452666429694   
      0.452392842843   0.452138021896   0.451903991671   0.451692645306   0.451505720053   
      0.451344774273   0.451211166178   0.451106034837   0.451030283913   0.450984568554   
      0.450969285769   0.450984568554   0.451030283913   0.451106034837   0.451211166178   
      0.451344774273   0.451505720053   0.451692645306   0.451903991671   0.452138021896   
      0.452392842843   0.452666429694   0.45295665083   0.453261292844   0.453578085203   
      0.453904724089   0.454238895042   0.454578294065   0.454920646931   0.455263726503   
      0.455605367957   0.455943481849   0.456276065049   0.456601209598   0.456917109611   
      0.457222066369   0.457514491775   0.457792910376   0.458055960143   0.458302392228   
      0.45853106989   0.458740966795   0.458931164865   0.459100851846   0.459249318743   
      0.459375957267   0.459480257391   0.459561805125   0.459620280595   0.459655456478   
      0.434216456273   0.434201305374   0.434155912554   0.434080457737   0.433975241741   
      0.43384068767   0.433677342787   0.433485880816   0.43326710457   0.433021948805   
      0.432751483168   0.432456915077   0.432139592374   0.431801005533   0.43144278923   
      0.431066723026   0.430674730927   0.430268879577   0.429851374814   0.429424556377   
      0.428990890507   0.42855296028   0.428113453481   0.427675147949   0.427240894301   
      0.426813596103   0.426396187544   0.425991608824   0.425602779491   0.425232570094   
      0.424883772558   0.424559069779   0.424261004984   0.423991951455   0.423754083228   
      0.423549347396   0.423379438629   0.423245776497   0.423149486119   0.423091382602   
      0.423071959648   0.423091382602   0.423149486119   0.423245776497   0.423379438629   
      0.423549347396   0.423754083228   0.423991951455   0.424261004984   0.424559069779   
      0.424883772558   0.425232570094   0.425602779491   0.425991608824   0.426396187544   
      0.426813596103   0.427240894301   0.427675147949   0.428113453481   0.42855296028   
      0.428990890507   0.429424556377   0.429851374814   0.430268879577   0.430674730927   
      0.431066723026   0.43144278923   0.431801005533   0.432139592374   0.432456915077   
      0.432751483168   0.433021948805   0.43326710457   0.433485880816   0.433677342787   
      0.43384068767   0.433975241741   0.434080457737   0.434155912554   0.434201305374   
      0.409012972493   0.408994468499   0.408939032281   0.408846891439   0.408718426331   
      0.408554171564   0.408354818006   0.408121215208   0.407854374151   0.407555470159   
      0.407225845826   0.406867013758   0.406480658917   0.406068640338   0.405632991943   
      0.405175922202   0.40469981234   0.404207212824   0.403700837843   0.40318355752   
      0.402658387645   0.402128476714   0.401597090152   0.401067591636   0.400543421527   
      0.40002807247   0.399525062343   0.399037904802   0.398570077761   0.398124990237   
      0.397705948057   0.397316118989   0.396958497919   0.396635872706   0.396350791388   
      0.396105531395   0.395902071383   0.395742066306   0.395626826235   0.395557299381   
      0.395534059708   0.395557299381   0.395626826235   0.395742066306   0.395902071383   
      0.396105531395   0.396350791388   0.396635872706   0.396958497919   0.397316118989   
      0.397705948057   0.398124990237   0.398570077761   0.399037904802   0.399525062343   
      0.40002807247   0.400543421527   0.401067591636   0.401597090152   0.402128476714   
      0.402658387645   0.40318355752   0.403700837843   0.404207212824   0.40469981234   
      0.405175922202   0.405632991943   0.406068640338   0.406480658917   0.406867013758   
      0.407225845826   0.407555470159   0.407854374151   0.408121215208   0.408354818006   
      0.408554171564   0.408718426331   0.408846891439   0.408939032281   0.408994468499   
      0.389261122751   0.389240136307   0.389177266146   0.389072780087   0.388927125482   
      0.388740930651   0.388515006782   0.388250350205   0.387948144894   0.387609765053   
      0.387236777575   0.386830944176   0.386394222942   0.385928769043   0.385436934314   
      0.384921265422   0.384384500312   0.383829562651   0.383259553982   0.382677743356   
      0.382087554211   0.381492548366   0.38089640701   0.380302908691   0.379715904334   
      0.379139289471   0.378576973884   0.37803284901   0.377510753502   0.377014437427   
      0.376547525663   0.37611348106   0.375715568017   0.3753568171   0.375039991348   
      0.374767554881   0.374541644393   0.374364044062   0.374236164352   0.374159025099   
      0.374133243192   0.374159025099   0.374236164352   0.374364044062   0.374541644393   
      0.374767554881   0.375039991348   0.3753568171   0.375715568017   0.37611348106   
      0.376547525663   0.377014437427   0.377510753502   0.37803284901   0.378576973884   
      0.379139289471   0.379715904334   0.380302908691   0.38089640701   0.381492548366   
      0.382087554211   0.382677743356   0.383259553982   0.383829562651   0.384384500312   
      0.384921265422   0.385436934314   0.385928769043   0.386394222942   0.386830944176   
      0.387236777575   0.387609765053   0.387948144894   0.388250350205   0.388515006782   
      0.388740930651   0.388927125482   0.389072780087   0.389177266146   0.389240136307   
      0.373862596386   0.373839959004   0.373772146299   0.373659456863   0.373502389239   
      0.373301643203   0.373058121441   0.372772931503   0.372447387903   0.372083014159   
      0.371681544596   0.371244925645   0.370775316402   0.370275088146   0.369746822538   
      0.369193308186   0.36861753529   0.368022688076   0.36741213476   0.366789414825   
      0.366158223433   0.365522392865   0.364885870946   0.364252696498   0.363626971948   
      0.363012833295   0.362414417758   0.36183582946   0.361281103622   0.360754169778   
      0.360258814568   0.359798644707   0.359377050725   0.358997172089   0.358661864282   
      0.358373668379   0.35813478363   0.357947043487   0.357811895462   0.357730385133   
      0.357703144535   0.357730385133   0.357811895462   0.357947043487   0.35813478363   
      0.358373668379   0.358661864282   0.358997172089   0.359377050725   0.359798644707   
      0.360258814568   0.360754169778   0.361281103622   0.36183582946   0.362414417758   
      0.363012833295   0.363626971948   0.364252696498   0.364885870946   0.365522392865   
      0.366158223433   0.366789414825   0.36741213476   0.368022688076   0.36861753529   
      0.369193308186   0.369746822538   0.370275088146   0.370775316402   0.371244925645   
      0.371681544596   0.372083014159   0.372447387903   0.372772931503   0.373058121441   
      0.373301643203   0.373502389239   0.373659456863   0.373772146299   0.373839959004   
      0.362811629582   0.362788010596   0.362717260224   0.362599698464   0.362435859425   
      0.362226492428   0.361972563431   0.361675256638   0.361335976152   0.360956347469   
      0.36053821859   0.36008366052   0.359594966858   0.359074652209   0.358525449116   
      0.3579503032   0.35735236624   0.356734986904   0.356101698907   0.355456206407   
      0.354802366489   0.3541441687   0.35348571162   0.352831176588   0.352184798751   
      0.35155083572   0.350933534167   0.350337094809   0.349765636235   0.349223158144   
      0.348713504515   0.348240327316   0.347807051294   0.347416840406   0.347072566401   
      0.346776780015   0.346531685194   0.346339116706   0.346200521429   0.346116943565   
      0.346089013945   0.346116943565   0.346200521429   0.346339116706   0.346531685194   
      0.346776780015   0.347072566401   0.347416840406   0.347807051294   0.348240327316   
      0.348713504515   0.349223158144   0.349765636235   0.350337094809   0.350933534167   
      0.35155083572   0.352184798751   0.352831176588   0.35348571162   0.3541441687   
      0.354802366489   0.355456206407   0.356101698907   0.356734986904   0.35735236624   
      0.3579503032   0.358525449116   0.359074652209   0.359594966858   0.36008366052   
      0.36053821859   0.360956347469   0.361335976152   0.361675256638   0.361972563431   
      0.362226492428   0.362435859425   0.362599698464   0.362717260224   0.362788010596   
      0.355752560774   0.3557284164   0.35565609433   0.35553592792   0.355368473449   
      0.355154511072   0.354895046035   0.354591309999   0.354244762337   0.353857091181   
      0.353430214002   0.352966277466   0.352467656296   0.351936950832   0.351376983016   
      0.350790790478   0.350181618477   0.349552909412   0.348908289706   0.348251553896   
      0.347586645825   0.346917636909   0.346248701539   0.345584089744   0.344928097355   
      0.344285033966   0.343659189091   0.343054796949   0.342476000402   0.341926814552   
      0.341411090585   0.340932480378   0.340494402431   0.340100009602   0.339752159115   
      0.339453385236   0.339205874966   0.339011447041   0.338871534456   0.338787170712   
      0.338758979899   0.338787170712   0.338871534456   0.339011447041   0.339205874966   
      0.339453385236   0.339752159115   0.340100009602   0.340494402431   0.340932480378   
      0.341411090585   0.341926814552   0.342476000402   0.343054796949   0.343659189091   
      0.344285033966   0.344928097355   0.345584089744   0.346248701539   0.346917636909   
      0.347586645825   0.348251553896   0.348908289706   0.349552909412   0.350181618477   
      0.350790790478   0.351376983016   0.351936950832   0.352467656296   0.352966277466   
      0.353430214002   0.353857091181   0.354244762337   0.354591309999   0.354895046035   
      0.355154511072   0.355368473449   0.35553592792   0.35565609433   0.3557284164   
      0.35233186419   0.352307496377   0.352234506127   0.352113233195   0.351944244468   
      0.351728334841   0.351466528307   0.351160079131   0.350810472943   0.35041942754   
      0.349988893174   0.349521052064   0.349018316853   0.348483327718   0.347918947847   
      0.34732825697   0.3467145427   0.346081289408   0.345432164452   0.344771001606   
      0.344101781595   0.343428609746   0.342755690814   0.342087301157   0.341427758497   
      0.340781389604   0.340152496297   0.339545320234   0.338964006987   0.338412569955   
      0.337894854639   0.337414503844   0.336974924294   0.336579255152   0.336230338862   
      0.335930694682   0.335682495215   0.335487546195   0.335347269716   0.335262691052   
      0.335234429176   0.335262691052   0.335347269716   0.335487546195   0.335682495215   
      0.335930694682   0.336230338862   0.336579255152   0.336974924294   0.337414503844   
      0.337894854639   0.338412569955   0.338964006987   0.339545320234   0.340152496297   
      0.340781389604   0.341427758497   0.342087301157   0.342755690814   0.343428609746   
      0.344101781595   0.344771001606   0.345432164452   0.346081289408   0.3467145427   
      0.34732825697   0.347918947847   0.348483327718   0.349018316853   0.349521052064   
      0.349988893174   0.35041942754   0.350810472943   0.351160079131   0.351466528307   
      0.351728334841   0.351944244468   0.352113233195   0.352234506127   0.352307496377   
      0.35233186419   0.352307496377   0.352234506127   0.352113233195   0.351944244468   
      0.351728334841   0.351466528307   0.351160079131   0.350810472943   0.35041942754   
      0.349988893174   0.349521052064   0.349018316853   0.348483327718   0.347918947847   
      0.34732825697   0.3467145427   0.346081289408   0.345432164452   0.344771001606   
      0.344101781595   0.343428609746   0.342755690814   0.342087301157   0.341427758497   
      0.340781389604   0.340152496297   0.339545320234   0.338964006987   0.338412569955   
      0.337894854639   0.337414503844   0.336974924294   0.336579255152   0.336230338862   
      0.335930694682   0.335682495215   0.335487546195   0.335347269716   0.335262691052   
      0.335234429176   0.335262691052   0.335347269716   0.335487546195   0.335682495215   
      0.335930694682   0.336230338862   0.336579255152   0.336974924294   0.337414503844   
      0.337894854639   0.338412569955   0.338964006987   0.339545320234   0.340152496297   
      0.340781389604   0.341427758497   0.342087301157   0.342755690814   0.343428609746   
      0.344101781595   0.344771001606   0.345432164452   0.346081289408   0.3467145427   
      0.34732825697   0.347918947847   0.348483327718   0.349018316853   0.349521052064   
      0.349988893174   0.35041942754   0.350810472943   0.351160079131   0.351466528307   
      0.351728334841   0.351944244468   0.352113233195   0.352234506127   0.352307496377   
      0.355752560774   0.3557284164   0.35565609433   0.35553592792   0.355368473449   
      0.355154511072   0.354895046035   0.354591309999   0.354244762337   0.353857091181   
      0.353430214002   0.352966277466   0.352467656296   0.351936950832   0.351376983016   
      0.350790790478   0.350181618477   0.349552909412   0.348908289706   0.348251553896   
      0.347586645825   0.346917636909   0.346248701539   0.345584089744   0.344928097355   
      0.344285033966   0.343659189091   0.343054796949   0.342476000402   0.341926814552   
      0.341411090585   0.340932480378   0.340494402431   0.340100009602   0.339752159115   
      0.339453385236   0.339205874966   0.339011447041   0.338871534456   0.338787170712   
      0.338758979899   0.338787170712   0.338871534456   0.339011447041   0.339205874966   
      0.339453385236   0.339752159115   0.340100009602   0.340494402431   0.340932480378   
      0.341411090585   0.341926814552   0.342476000402   0.343054796949   0.343659189091   
      0.344285033966   0.344928097355   0.345584089744   0.346248701539   0.346917636909   
      0.347586645825   0.348251553896   0.348908289706   0.349552909412   0.350181618477   
      0.350790790478   0.351376983016   0.351936950832   0.352467656296   0.352966277466   
      0.353430214002   0.353857091181   0.354244762337   0.354591309999   0.354895046035   
      0.355154511072   0.355368473449   0.35553592792   0.35565609433   0.3557284164   
      0.362811629582   0.362788010596   0.362717260224   0.362599698464   0.362435859425   
      0.362226492428   0.361972563431   0.361675256638   0.361335976152   0.360956347469   
      0.36053821859   0.36008366052   0.359594966858   0.359074652209   0.358525449116   
      0.3579503032   0.35735236624   0.356734986904   0.356101698907   0.355456206407   
      0.354802366489   0.3541441687   0.35348571162   0.352831176588   0.352184798751   
      0.35155083572   0.350933534167   0.350337094809   0.349765636235   0.349223158144   
      0.348713504515   0.348240327316   0.347807051294   0.347416840406   0.347072566401   
      0.346776780015   0.346531685194   0.346339116706   0.346200521429   0.346116943565   
      0.346089013945   0.346116943565   0.346200521429   0.346339116706   0.346531685194   
      0.346776780015   0.347072566401   0.347416840406   0.347807051294   0.348240327316   
      0.348713504515   0.349223158144   0.349765636235   0.350337094809   0.350933534167   
      0.35155083572   0.352184798751   0.352831176588   0.35348571162   0.3541441687   
      0.354802366489   0.355456206407   0.356101698907   0.356734986904   0.35735236624   
      0.3579503032   0.358525449116   0.359074652209   0.359594966858   0.36008366052   
      0.36053821859   0.360956347469   0.361335976152   0.361675256638   0.361972563431   
      0.362226492428   0.362435859425   0.362599698464   0.362717260224   0.362788010596   
      0.373862596386   0.373839959004   0.373772146299   0.373659456863   0.373502389239   
      0.373301643203   0.373058121441   0.372772931503   0.372447387903   0.372083014159   
      0.371681544596   0.371244925645   0.370775316402   0.370275088146   0.369746822538   
      0.369193308186   0.36861753529   0.368022688076   0.36741213476   0.366789414825   
      0.366158223433   0.365522392865   0.364885870946   0.364252696498   0.363626971948   
      0.363012833295   0.362414417758   0.36183582946   0.361281103622   0.360754169778   
      0.360258814568   0.359798644707   0.359377050725   0.358997172089   0.358661864282   
      0.358373668379   0.35813478363   0.357947043487   0.357811895462   0.357730385133   
      0.357703144535   0.357730385133   0.357811895462   0.357947043487   0.35813478363   
      0.358373668379   0.358661864282   0.358997172089   0.359377050725   0.359798644707   
      0.360258814568   0.360754169778   0.361281103622   0.36183582946   0.362414417758   
      0.363012833295   0.363626971948   0.364252696498   0.364885870946   0.365522392865   
      0.366158223433   0.366789414825   0.36741213476   0.368022688076   0.36861753529   
      0.369193308186   0.369746822538   0.370275088146   0.370775316402   0.371244925645   
      0.371681544596   0.372083014159   0.372447387903   0.372772931503   0.373058121441   
      0.373301643203   0.373502389239   0.373659456863   0.373772146299   0.373839959004   
      0.389261122751   0.389240136307   0.389177266146   0.389072780087   0.388927125482   
      0.388740930651   0.388515006782   0.388250350205   0.387948144894   0.387609765053   
      0.387236777575   0.386830944176   0.386394222942   0.385928769043   0.385436934314   
      0.384921265422   0.384384500312   0.383829562651   0.383259553982   0.382677743356   
      0.382087554211   0.381492548366   0.38089640701   0.380302908691   0.379715904334   
      0.379139289471   0.378576973884   0.37803284901   0.377510753502   0.377014437427   
      0.376547525663   0.37611348106   0.375715568017   0.3753568171   0.375039991348   
      0.374767554881   0.374541644393   0.374364044062   0.374236164352   0.374159025099   
      0.374133243192   0.374159025099   0.374236164352   0.374364044062   0.374541644393   
      0.374767554881   0.375039991348   0.3753568171   0.375715568017   0.37611348106   
      0.376547525663   0.377014437427   0.377510753502   0.37803284901   0.378576973884   
      0.379139289471   0.379715904334   0.380302908691   0.38089640701   0.381492548366   
      0.382087554211   0.382677743356   0.383259553982   0.383829562651   0.384384500312   
      0.384921265422   0.385436934314   0.385928769043   0.386394222942   0.386830944176   
      0.387236777575   0.387609765053   0.387948144894   0.388250350205   0.388515006782   
      0.388740930651   0.388927125482   0.389072780087   0.389177266146   0.389240136307   
      0.409012972493   0.408994468499   0.408939032281   0.408846891439   0.408718426331   