<?xml version="1.0"?>
<VTKFile type="ImageData" version="0.1" byte_order="LittleEndian">
  <ImageData WholeExtent="0 79 0 19 0 19" Origin="0 0 0" Spacing="1 1 1">
  <Piece Extent="0 79 0 19 0 19">
    <PointData Scalars="density">
       <DataArray type="Float32" Name="bluedensity" NumberOfComponents="1" format="ascii">
      0   0   0   0   0   
      0   0   0   0   0   
      0   0   0   0   0   
      0   0   0   0   0   
      0   0   0   0   0   
      0   0   0   0   0   
      0   0   0   0   0   
      0   0   0   0   0   
      0   0   0   0   0   
      0   0   0   0   0   
      0   0   0   0   0   
      0   0   0   0   0   
      0   0   0   0   0   
      0   0   0   0   0   
      0   0   0   0   0   
      0   0   0   0   0   
      0   0   0   0   0   
      0   0   0   0   0   
      0   0   0   0   0   
      0   0   0   0   0   
      0   0   0   0   0   
      0   0   0   0   0   
      0   0   0   0   0   
      0   0   0   0   0   
      0   0   0   0   0   
      0   0   0   0   0   
      0   0   0   0   0   
      0   0   0   0   0   
      0   0   0   0   0   
      0   0   0   0   0   
      0   0   0   0   0   
      0   0   0   0   0   
      0   0   0   0   0   
      0   0   0   0   0   
      0   0   0   0   0   
      0   0   0   0   0   
      0   0   0   0   0   
      0   0   0   0   0   
      0   0   0   0   0   
      0   0   0   0   0   
      0   0   0   0   0   
      0   0   0   0   0   
      0   0   0   0   0   
      0   0   0   0   0   
      0   0   0   0   0   
      0   0   0   0   0   
      0   0   0   0   0   
      0   0   0   0   0   
      0   0   0   0   0   
      0   0   0   0   0   
      0   0   0   0   0   
      0   0   0   0   0   
      0   0   0   0   0   
      0   0   0   0   0   
      0   0   0   0   0   
      0   0   0   0   0   
      0   0   0   0   0   
      0   0   0   0   0   
      0   0   0   0   0   
      0   0   0   0   0   
      0   0   0   0   0   
      0   0   0   0   0   
      0   0   0   0   0   
      0   0   0   0   0   
      0   0   0   0   0   
      0   0   0   0   0   
      0   0   0   0   0   
      0   0   0   0   0   
      0   0   0   0   0   
      0   0   0   0   0   
      0   0   0   0   0   
      0   0   0   0   0   
      0   0   0   0   0   
      0   0   0   0   0   
      0   0   0   0   0   
      0   0   0   0   0   
      0   0   0   0   0   
      0   0   0   0   0   
      0   0   0   0   0   
      0   0   0   0   0   
      0   0   0   0   0   
      0   0   0   0   0   
      0   0   0   0   0   
      0   0   0   0   0   
      0   0   0   0   0   
      0   0   0   0   0   
      0   0   0   0   0   
      0   0   0   0   0   
      0   0   0   0   0   
      0   0   0   0   0   
      0   0   0   0   0   
      0   0   0   0   0   
      0   0   0   0   0   
      0   0   0   0   0   
      0   0   0   0   0   
      0   0   0   0   0   
      0   0   0   0   0   
      0   0   0   0   0   
      0   0   0   0   0   
      0   0   0   0   0   
      0   0   0   0   0   
      0   0   0   0   0   
      0   0   0   0   0   
      0   0   0   0   0   
      0   0   0   0   0   
      0   0   0   0   0   
      0   0   0   0   0   
      0   0   0   0   0   
      0   0   0   0   0   
      0   0   0   0   0   
      0   0   0   0   0   
      0   0   0   0   0   
      0   0   0   0   0   
      0   0   0   0   0   
      0   0   0   0   0   
      0   0   0   0   0   
      0   0   0   0   0   
      0   0   0   0   0   
      0   0   0   0   0   
      0   0   0   0   0   
      0   0   0   0   0   
      0   0   0   0   0   
      0   0   0   0   0   
      0   0   0   0   0   
      0   0   0   0   0   
      0   0   0   0   0   
      0   0   0   0   0   
      0   0   0   0   0   
      0   0   0   0   0   
      0   0   0   0   0   
      0   0   0   0   0   
      0   0   0   0   0   
      0   0   0   0   0   
      0   0   0   0   0   
      0   0   0   0   0   
      0   0   0   0   0   
      0   0   0   0   0   
      0   0   0   0   0   
      0   0   0   0   0   
      0   0   0   0   0   
      0   0   0   0   0   
      0   0   0   0   0   
      0   0   0   0   0   
      0   0   0   0   0   
      0   0   0   0   0   
      0   0   0   0   0   
      0   0   0   0   0   
      0   0   0   0   0   
      0   0   0   0   0   
      0   0   0   0   0   
      0   0   0   0   0   
      0   0   0   0   0   
      0   0   0   0   0   
      0   0   0   0   0   
      0   0   0   0   0   
      0   0   0   0   0   
      0   0   0   0   0   
      0   0   0   0   0   
      0   0   0   0   0   
      0   0   0   0   0   
      0   0   0   0   0   
      0   0   0   0   0   
      0   0   0   0   0   
      0   0   0   0   0   
      0   0   0   0   0   
      0   0   0   0   0   
      0   0   0   0   0   
      0   0   0   0   0   
      0   0   0   0   0   
      0   0   0   0   0   
      0   0   0   0   0   
      0   0   0   0   0   
      0   0   0   0   0   
      0   0   0   0   0   
      0   0   0   0   0   
      0   0   0   0   0   
      0   0   0   0   0   
      0   0   0   0   0   
      0   0   0   0   0   
      0   0   0   0   0   
      0   0   0   0   0   
      0   0   0   0   0   
      0   0   0   0   0   
      0   0   0   0   0   
      0   0   0   0   0   
      0   0   0   0   0   
      0   0   0   0   0   
      0   0   0   0   0   
      0   0   0   0   0   
      0   0   0   0   0   
      0   0   0   0   0   
      0   0   0   0   0   
      0   0   0   0   0   
      0   0   0   0   0   
      0   0   0   0   0   
      0   0   0   0   0   
      0   0   0   0   0   
      0   0   0   0   0   
      0   0   0   0   0   
      0   0   0   0   0   
      0   0   0   0   0   
      0   0   0   0   0   
      0   0   0   0   0   
      0   0   0   0   0   
      0   0   0   0   0   
      0   0   0   0   0   
      0   0   0   0   0   
      0   0   0   0   0   
      0   0   0   0   0   
      0   0   0   0   0   
      0   0   0   0   0   
      0   0   0   0   0   
      0   0   0   0   0   
      0   0   0   0   0   
      0   0   0   0   0   
      0   0   0   0   0   
      0   0   0   0   0   
      0   0   0   0   0   
      0   0   0   0   0   
      0   0   0   0   0   
      0   0   0   0   0   
      0   0   0   0   0   
      0   0   0   0   0   
      0   0   0   0   0   
      0   0   0   0   0   
      0   0   0   0   0   
      0   0   0   0   0   
      0   0   0   0   0   
      0   0   0   0   0   
      0   0   0   0   0   
      0   0   0   0   0   
      0   0   0   0   0   
      0   0   0   0   0   
      0   0   0   0   0   
      0   0   0   0   0   
      0   0   0   0   0   
      0   0   0   0   0   
      0   0   0   0   0   
      0   0   0   0   0   
      0   0   0   0   0   
      0   0   0   0   0   
      0   0   0   0   0   
      0   0   0   0   0   
      0   0   0   0   0   
      0   0   0   0   0   
      0   0   0   0   0   
      0   0   0   0   0   
      0   0   0   0   0   
      0   0   0   0   0   
      0   0   0   0   0   
      0   0   0   0   0   
      0   0   0   0   0   
      0   0   0   0   0   
      0   0   0   0   0   
      0   0   0   0   0   
      0   0   0   0   0   
      0   0   0   0   0   
      0   0   0   0   0   
      0   0   0   0   0   
      0   0   0   0   0   
      0   0   0   0   0   
      0   0   0   0   0   
      0   0   0   0   0   
      0   0   0   0   0   
      0   0   0   0   0   
      0   0   0   0   0   
      0   0   0   0   0   
      0   0   0   0   0   
      0   0   0   0   0   
      0   0   0   0   0   
      0   0   0   0   0   
      0   0   0   0   0   
      0   0   0   0   0   
      0   0   0   0   0   
      0   0   0   0   0   
      0   0   0   0   0   
      0   0   0   0   0   
      0   0   0   0   0   
      0   0   0   0   0   
      0   0   0   0   0   
      0   0   0   0   0   
      0   0   0   0   0   
      0   0   0   0   0   
      0   0   0   0   0   
      0   0   0   0   0   
      0   0   0   0   0   
      0   0   0   0   0   
      0   0   0   0   0   
      0   0   0   0   0   
      0   0   0   0   0   
      0   0   0   0   0   
      0   0   0   0   0   
      0   0   0   0   0   
      0   0   0   0   0   
      0   0   0   0   0   
      0   0   0   0   0   
      0   0   0   0   0   
      0   0   0   0   0   
      0   0   0   0   0   
      0   0   0   0   0   
      0   0   0   0   0   
      0   0   0   0   0   
      0   0   0   0   0   
      0   0   0   0   0   
      0   0   0   0   0   
      0   0   0   0   0   
      0   0   0   0   0   
      0   0   0   0   0   
      0   0   0   0   0   
      0   0   0   0   0   
      0   0   0   0   0   
      0   0   0   0   0   
      0   0   0   0   0   
      0   0   0   0   0   
      0   0   0   0   0   
      0   0   0   0   0   
      0   0   0   0   0   
      0   0   0   0   0   
      0   0   0   0   0   
      0   0   0   0   0   
      0   0   0   0   0   
      0   0   0   0   0   
      0   0   0   0   0   
      0   0   0   0   0   
      0   0   0   0   0   
      0   0   0   0   0   
      0   0   0   0   0   
      0   0   0   0   0   
      0   0   0   0   0   
      0   0   0   0   0   
      0   0   0   0   0   
      0   0   0   0   0   
      0   0   0   0   0   
      0   0   0   0   0   
      0   0   0   0   0   
      0   0   0   0   0   
      0.579780602245   0.579753607787   0.579672602023   0.57953751835   0.579348247717   
      0.579104641785   0.578806517803   0.578453665685   0.578045857932   0.577582863215   
      0.577064464631   0.576490483817   0.57586081226   0.575175451257   0.574434561963   
      0.573638526867   0.572788023669   0.571884112005   0.57092833259   0.569922817225   
      0.568870406695   0.567774771962   0.566640532407   0.565473363282   0.564280083316   
      0.563068712764   0.561848492285   0.560629854104   0.559424338851   0.558244454393   
      0.557103476417   0.556015194416   0.554993610531   0.554052602102   0.553205561493   
      0.552465028498   0.551842331383   0.551347252327   0.550987731876   0.550769625135   
      0.550696520021   0.550769625135   0.550987731876   0.551347252327   0.551842331383   
      0.552465028498   0.553205561493   0.554052602102   0.554993610531   0.556015194416   
      0.557103476417   0.558244454393   0.559424338851   0.560629854104   0.561848492285   
      0.563068712764   0.564280083316   0.565473363282   0.566640532407   0.567774771962   
      0.568870406695   0.569922817225   0.57092833259   0.571884112005   0.572788023669   
      0.573638526867   0.574434561963   0.575175451257   0.57586081226   0.576490483817   
      0.577064464631   0.577582863215   0.578045857932   0.578453665685   0.578806517803   
      0.579104641785   0.579348247717   0.57953751835   0.579672602023   0.579753607787   
      0.470858434334   0.470821308593   0.470709890592   0.470524058997   0.470263615011   
      0.46992828787   0.469517743263   0.469031595419   0.468469423869   0.467830796104   
      0.467115297659   0.466322571321   0.465452367376   0.464504606842   0.463479459554   
      0.462377438623   0.461199512163   0.459947232179   0.458622879106   0.457229618728   
      0.455771666092   0.454254448791   0.452684759813   0.451070888326   0.449422715662   
      0.447751763646   0.446071183536   0.4443956763   0.442741338592   0.44112543341   
      0.439566089475   0.438081938361   0.436691702765   0.435413752563   0.434265647213   
      0.433263683501   0.432422466745   0.431754521704   0.431269956848   0.430976192837   
      0.430877763228   0.430976192837   0.431269956848   0.431754521704   0.432422466745   
      0.433263683501   0.434265647213   0.435413752563   0.436691702765   0.438081938361   
      0.439566089475   0.44112543341   0.442741338592   0.4443956763   0.446071183536   
      0.447751763646   0.449422715662   0.451070888326   0.452684759813   0.454254448791   
      0.455771666092   0.457229618728   0.458622879106   0.459947232179   0.461199512163   
      0.462377438623   0.463479459554   0.464504606842   0.465452367376   0.466322571321   
      0.467115297659   0.467830796104   0.468469423869   0.469031595419   0.469517743263   
      0.46992828787   0.470263615011   0.470524058997   0.470709890592   0.470821308593   
      0.44907176475   0.449023382633   0.448878188306   0.448636039486   0.448296704652   
      0.447859871972   0.447325162797   0.446692150748   0.445960387734   0.44512943854   
      0.444198925934   0.443168588427   0.442038352989   0.440808424911   0.439479396716   
      0.438052377327   0.436529141636   0.434912299003   0.433205477188   0.431413515724   
      0.429542660032   0.427600744875   0.425597353478   0.423543937183   0.421453880313   
      0.419342496298   0.417226944177   0.415126059291   0.413060097767   0.411050400759   
      0.409118990474   0.407288114995   0.405579762234   0.4040151646   0.402614315201   
      0.401395513895   0.400374957867   0.399566387227   0.398980792188   0.39862618502   
      0.398507437718   0.39862618502   0.398980792188   0.399566387227   0.400374957867   
      0.401395513895   0.402614315201   0.4040151646   0.405579762234   0.407288114995   
      0.409118990474   0.411050400759   0.413060097767   0.415126059291   0.417226944177   
      0.419342496298   0.421453880313   0.423543937183   0.425597353478   0.427600744875   
      0.429542660032   0.431413515724   0.433205477188   0.434912299003   0.436529141636   
      0.438052377327   0.439479396716   0.440808424911   0.442038352989   0.443168588427   
      0.444198925934   0.44512943854   0.445960387734   0.446692150748   0.447325162797   
      0.447859871972   0.448296704652   0.448636039486   0.448878188306   0.449023382633   
      0.427617751826   0.427557608695   0.42737713516   0.427076201262   0.426654598781   
      0.426112054456   0.425448249786   0.42466284873   0.42375553497   0.422726060786   
      0.421574309841   0.420300376357   0.418904663153   0.417388000699   0.415751788673   
      0.413998160331   0.412130168309   0.410151988145   0.408069133005   0.405888669936   
      0.40361942479   0.401272160196   0.398859709186   0.396397046795   0.393901283642   
      0.391391569355   0.388888899537   0.38641582733   0.383996088529   0.381654156627   
      0.37941474996   0.377302316461   0.375340521959   0.373551765561   0.371956740941   
      0.37057405627   0.369419919046   0.368507886132   0.367848674789   0.367450027633   
      0.367316623575   0.367450027633   0.367848674789   0.368507886132   0.369419919046   
      0.37057405627   0.371956740941   0.373551765561   0.375340521959   0.377302316461   
      0.37941474996   0.381654156627   0.383996088529   0.38641582733   0.388888899537   
      0.391391569355   0.393901283642   0.396397046795   0.398859709186   0.401272160196   
      0.40361942479   0.405888669936   0.408069133005   0.410151988145   0.412130168309   
      0.413998160331   0.415751788673   0.417388000699   0.418904663153   0.420300376357   
      0.421574309841   0.422726060786   0.42375553497   0.42466284873   0.425448249786   
      0.426112054456   0.426654598781   0.427076201262   0.42737713516   0.427557608695   
      0.410811535472   0.410741930407   0.410533085451   0.410184914591   0.409697285614   
      0.409070037596   0.408303006953   0.407396063613   0.406349159252   0.405162389927   
      0.403836075642   0.402370859445   0.400767828433   0.3990286584   0.39715578275   
      0.395152584551   0.393023608195   0.390774784113   0.38841365651   0.385949600462   
      0.383394011466   0.380760448296   0.378064709428   0.375324825   0.372560950581   
      0.369795155806   0.367051109681   0.364353673897   0.361728424501   0.359201129251   
      0.356797211743   0.354541233445   0.35245642099   0.350564259364   0.348884163099   
      0.347433228634   0.346226062944   0.34527467733   0.344588431436   0.344174011258   
      0.344035425962   0.344174011258   0.344588431436   0.34527467733   0.346226062944   
      0.347433228634   0.348884163099   0.350564259364   0.35245642099   0.354541233445   
      0.356797211743   0.359201129251   0.361728424501   0.364353673897   0.367051109681   
      0.369795155806   0.372560950581   0.375324825   0.378064709428   0.380760448296   
      0.383394011466   0.385949600462   0.38841365651   0.390774784113   0.393023608195   
      0.395152584551   0.39715578275   0.3990286584   0.400767828433   0.402370859445   
      0.403836075642   0.405162389927   0.406349159252   0.407396063613   0.408303006953   
      0.409070037596   0.409697285614   0.410184914591   0.410533085451   0.410741930407   
      0.397506281596   0.397429790333   0.39720030466   0.39681779295   0.396282216176   
      0.395593549323   0.394751813181   0.393757118245   0.392609722916   0.391310108515   
      0.389859073752   0.388257851218   0.386508247958   0.384612811199   0.382575018689   
      0.380399490772   0.378092218245   0.375660796421   0.373114651821   0.370465244144   
      0.367726223265   0.364913519719   0.362045348284   0.359142108361   0.356226171937   
      0.353321559555   0.35045351572   0.347648005962   0.344931166516   0.342328742764   
      0.339865553159   0.33756501129   0.335448730759   0.333536227094   0.331844719748   
      0.330389026933   0.329181538018   0.328232242961   0.327548796144   0.327136592556   
      0.326998837141   0.327136592556   0.327548796144   0.328232242961   0.329181538018   
      0.330389026933   0.331844719748   0.333536227094   0.335448730759   0.33756501129   
      0.339865553159   0.342328742764   0.344931166516   0.347648005962   0.35045351572   
      0.353321559555   0.356226171937   0.359142108361   0.362045348284   0.364913519719   
      0.367726223265   0.370465244144   0.373114651821   0.375660796421   0.378092218245   
      0.380399490772   0.382575018689   0.384612811199   0.386508247958   0.388257851218   
      0.389859073752   0.391310108515   0.392609722916   0.393757118245   0.394751813181   
      0.395593549323   0.396282216176   0.39681779295   0.39720030466   0.397429790333   
      0.387800104382   0.387719080429   0.387476012789   0.38707091879   0.386503843184   
      0.385774882964   0.384884224068   0.383832191892   0.382619317946   0.381246425251   
      0.379714735162   0.378025997998   0.376182649127   0.374187990798   0.372046397957   
      0.369763543374   0.367346633885   0.364804645346   0.362148539727   0.359391444052   
      0.356548768598   0.353638241692   0.350679841454   0.347695611158   0.344709354495   
      0.34174621878   0.338832186567   0.335993507144   0.333256106912   0.330645020367   
      0.328183880549   0.32589450006   0.32379656237   0.321907430222   0.320242065466   
      0.318813044365   0.317630645275   0.316702982065   0.316036156261   0.315634403254   
      0.315500212037   0.315634403254   0.316036156261   0.316702982065   0.317630645275   
      0.318813044365   0.320242065466   0.321907430222   0.32379656237   0.32589450006   
      0.328183880549   0.330645020367   0.333256106912   0.335993507144   0.338832186567   
      0.34174621878   0.344709354495   0.347695611158   0.350679841454   0.353638241692   
      0.356548768598   0.359391444052   0.362148539727   0.364804645346   0.367346633885   
      0.369763543374   0.372046397957   0.374187990798   0.376182649127   0.378025997998   
      0.379714735162   0.381246425251   0.382619317946   0.383832191892   0.384884224068   
      0.385774882964   0.386503843184   0.38707091879   0.387476012789   0.387719080429   
      0.381520475409   0.381436763642   0.381185644154   0.380767169548   0.380181445044   
      0.379428655849   0.378509107582   0.377423281744   0.376171908647   0.374756060464   
      0.373177267025   0.371437656539   0.369540122512   0.367488516438   0.365287863476   
      0.362944595035   0.360466788244   0.357864397867   0.355149461898   0.352336258609   
      0.349441391147   0.34648377679   0.343484522474   0.340466676296   0.337454856035   
      0.334474768837   0.331552649276   0.328714653604   0.325986254198   0.323391678618   
      0.320953432192   0.318691932559   0.316625271122   0.314769102103   0.313136647106   
      0.311738793303   0.310584257416   0.309679785506   0.309030359698   0.308639386408   
      0.308508845626   0.308639386408   0.309030359698   0.309679785506   0.310584257416   
      0.311738793303   0.313136647106   0.314769102103   0.316625271122   0.318691932559   
      0.320953432192   0.323391678618   0.325986254198   0.328714653604   0.331552649276   
      0.334474768837   0.337454856035   0.340466676296   0.343484522474   0.34648377679   
      0.349441391147   0.352336258609   0.355149461898   0.357864397867   0.360466788244   
      0.362944595035   0.365287863476   0.367488516438   0.369540122512   0.371437656539   
      0.373177267025   0.374756060464   0.376171908647   0.377423281744   0.378509107582   
      0.379428655849   0.380181445044   0.380767169548   0.381185644154   0.381436763642   
      0.378453471444   0.378368518436   0.378113681224   0.377689030682   0.377094703388   
      0.376330930399   0.375398079691   0.374296714298   0.373027668627   0.37159214558   
      0.369991837092   0.368229070123   0.366306979135   0.364229704224   0.362002611527   
      0.359632529046   0.35712798688   0.354499446326   0.351759497979   0.348923005656   
      0.346007171699   0.34303150085   0.340017645222   0.336989121955   0.333970907294   
      0.330988924607   0.328069457054   0.325238525899   0.322521280721   0.319941446915   
      0.317520868889   0.315279175576   0.313233580357   0.31139881274   0.309787166372   
      0.308408638615   0.307271131675   0.306380683947   0.305741702097   0.305357168416   
      0.305228803295   0.305357168416   0.305741702097   0.306380683947   0.307271131675   
      0.308408638615   0.309787166372   0.31139881274   0.313233580357   0.315279175576   
      0.317520868889   0.319941446915   0.322521280721   0.325238525899   0.328069457054   
      0.330988924607   0.333970907294   0.336989121955   0.340017645222   0.34303150085   
      0.346007171699   0.348923005656   0.351759497979   0.354499446326   0.35712798688   
      0.359632529046   0.362002611527   0.364229704224   0.366306979135   0.368229070123   
      0.369991837092   0.37159214558   0.373027668627   0.374296714298   0.375398079691   
      0.376330930399   0.377094703388   0.377689030682   0.378113681224   0.378368518436   
      0.378453471444   0.378368518436   0.378113681224   0.377689030682   0.377094703388   
      0.376330930399   0.375398079691   0.374296714298   0.373027668627   0.37159214558   
      0.369991837092   0.368229070123   0.366306979135   0.364229704224   0.362002611527   
      0.359632529046   0.35712798688   0.354499446326   0.351759497979   0.348923005656   
      0.346007171699   0.34303150085   0.340017645222   0.336989121955   0.333970907294   
      0.330988924607   0.328069457054   0.325238525899   0.322521280721   0.319941446915   
      0.317520868889   0.315279175576   0.313233580357   0.31139881274   0.309787166372   
      0.308408638615   0.307271131675   0.306380683947   0.305741702097   0.305357168416   
      0.305228803295   0.305357168416   0.305741702097   0.306380683947   0.307271131675   
      0.308408638615   0.309787166372   0.31139881274   0.313233580357   0.315279175576   
      0.317520868889   0.319941446915   0.322521280721   0.325238525899   0.328069457054   
      0.330988924607   0.333970907294   0.336989121955   0.340017645222   0.34303150085   
      0.346007171699   0.348923005656   0.351759497979   0.354499446326   0.35712798688   
      0.359632529046   0.362002611527   0.364229704224   0.366306979135   0.368229070123   
      0.369991837092   0.37159214558   0.373027668627   0.374296714298   0.375398079691   
      0.376330930399   0.377094703388   0.377689030682   0.378113681224   0.378368518436   
      0.381520475409   0.381436763642   0.381185644154   0.380767169548   0.380181445044   
      0.379428655849   0.378509107582   0.377423281744   0.376171908647   0.374756060464   
      0.373177267025   0.371437656539   0.369540122512   0.367488516438   0.365287863476   
      0.362944595035   0.360466788244   0.357864397867   0.355149461898   0.352336258609   
      0.349441391147   0.34648377679   0.343484522474   0.340466676296   0.337454856035   
      0.334474768837   0.331552649276   0.328714653604   0.325986254198   0.323391678618   
      0.320953432192   0.318691932559   0.316625271122   0.314769102103   0.313136647106   
      0.311738793303   0.310584257416   0.309679785506   0.309030359698   0.308639386408   
      0.308508845626   0.308639386408   0.309030359698   0.309679785506   0.310584257416   
      0.311738793303   0.313136647106   0.314769102103   0.316625271122   0.318691932559   
      0.320953432192   0.323391678618   0.325986254198   0.328714653604   0.331552649276   
      0.334474768837   0.337454856035   0.340466676296   0.343484522474   0.34648377679   
      0.349441391147   0.352336258609   0.355149461898   0.357864397867   0.360466788244   
      0.362944595035   0.365287863476   0.367488516438   0.369540122512   0.371437656539   
      0.373177267025   0.374756060464   0.376171908647   0.377423281744   0.378509107582   
      0.379428655849   0.380181445044   0.380767169548   0.381185644154   0.381436763642   
      0.387800104382   0.387719080429   0.387476012789   0.38707091879   0.386503843184   
      0.385774882964   0.384884224068   0.383832191892   0.382619317946   0.381246425251   
      0.379714735162   0.378025997998   0.376182649127   0.374187990798   0.372046397957   
      0.369763543374   0.367346633885   0.364804645346   0.362148539727   0.359391444052   
      0.356548768598   0.353638241692   0.350679841454   0.347695611158   0.344709354495   
      0.34174621878   0.338832186567   0.335993507144   0.333256106912   0.330645020367   
      0.328183880549   0.32589450006   0.32379656237   0.321907430222   0.320242065466   
      0.318813044365   0.317630645275   0.316702982065   0.316036156261   0.315634403254   
      0.315500212037   0.315634403254   0.316036156261   0.316702982065   0.317630645275   
      0.318813044365   0.320242065466   0.321907430222   0.32379656237   0.32589450006   
      0.328183880549   0.330645020367   0.333256106912   0.335993507144   0.338832186567   
      0.34174621878   0.344709354495   0.347695611158   0.350679841454   0.353638241692   
      0.356548768598   0.359391444052   0.362148539727   0.364804645346   0.367346633885   
      0.369763543374   0.372046397957   0.374187990798   0.376182649127   0.378025997998   
      0.379714735162   0.381246425251   0.382619317946   0.383832191892   0.384884224068   
      0.385774882964   0.386503843184   0.38707091879   0.387476012789   0.387719080429   
      0.397506281596   0.397429790333   0.39720030466   0.39681779295   0.396282216176   
      0.395593549323   0.394751813181   0.393757118245   0.392609722916   0.391310108515   
      0.389859073752   0.388257851218   0.386508247958   0.384612811199   0.382575018689   
      0.380399490772   0.378092218245   0.375660796421   0.373114651821   0.370465244144   
      0.367726223265   0.364913519719   0.362045348284   0.359142108361   0.356226171937   
      0.353321559555   0.35045351572   0.347648005962   0.344931166516   0.342328742764   
      0.339865553159   0.33756501129   0.335448730759   0.333536227094   0.331844719748   
      0.330389026933   0.329181538018   0.328232242961   0.327548796144   0.327136592556   
      0.326998837141   0.327136592556   0.327548796144   0.328232242961   0.329181538018   
      0.330389026933   0.331844719748   0.333536227094   0.335448730759   0.33756501129   
      0.339865553159   0.342328742764   0.344931166516   0.347648005962   0.35045351572   
      0.353321559555   0.356226171937   0.359142108361   0.362045348284   0.364913519719   
      0.367726223265   0.370465244144   0.373114651821   0.375660796421   0.378092218245   
      0.380399490772   0.382575018689   0.384612811199   0.386508247958   0.388257851218   
      0.389859073752   0.391310108515   0.392609722916   0.393757118245   0.394751813181   
      0.395593549323   0.396282216176   0.39681779295   0.39720030466   0.397429790333   
      0.410811535472   0.410741930407   0.410533085451   0.410184914591   0.409697285614   
      0.409070037596   0.408303006953   0.407396063613   0.406349159252   0.405162389927   
      0.403836075642   0.402370859445   0.400767828433   0.3990286584   0.39715578275   
      0.395152584551   0.393023608195   0.390774784113   0.38841365651   0.385949600462   
      0.383394011466   0.380760448296   0.378064709428   0.375324825   0.372560950581   
      0.369795155806   0.367051109681   0.364353673897   0.361728424501   0.359201129251   
      0.356797211743   0.354541233445   0.35245642099   0.350564259364   0.348884163099   
      0.347433228634   0.346226062944   0.34527467733   0.344588431436   0.344174011258   
      0.344035425962   0.344174011258   0.344588431436   0.34527467733   0.346226062944   
      0.347433228634   0.348884163099   0.350564259364   0.35245642099   0.354541233445   
      0.356797211743   0.359201129251   0.361728424501   0.364353673897   0.367051109681   
      0.369795155806   0.372560950581   0.375324825   0.378064709428   0.380760448296   
      0.383394011466   0.385949600462   0.38841365651   0.390774784113   0.393023608195   
      0.395152584551   0.39715578275   0.3990286584   0.400767828433   0.402370859445   
      0.403836075642   0.405162389927   0.406349159252   0.407396063613   0.408303006953   
      0.409070037596   0.409697285614   0.410184914591   0.410533085451   0.410741930407   
      0.427617751826   0.427557608695   0.42737713516   0.427076201262   0.426654598781   