<?xml version="1.0"?>
<VTKFile type="ImageData" version="0.1" byte_order="LittleEndian">
  <ImageData WholeExtent="0 79 0 19 0 19" Origin="0 0 0" Spacing="1 1 1">
  <Piece Extent="0 79 0 19 0 19">
    <PointData Scalars="density">
       <DataArray type="Float32" Name="bluedensity" NumberOfComponents="1" format="ascii">
      0   0   0   0   0   
      0   0   0   0   0   
      0   0   0   0   0   
      0   0   0   0   0   
      0   0   0   0   0   
      0   0   0   0   0   
      0   0   0   0   0   
      0   0   0   0   0   
      0   0   0   0   0   
      0   0   0   0   0   
      0   0   0   0   0   
      0   0   0   0   0   
      0   0   0   0   0   
      0   0   0   0   0   
      0   0   0   0   0   
      0   0   0   0   0   
      0   0   0   0   0   
      0   0   0   0   0   
      0   0   0   0   0   
      0   0   0   0   0   
      0   0   0   0   0   
      0   0   0   0   0   
      0   0   0   0   0   
      0   0   0   0   0   
      0   0   0   0   0   
      0   0   0   0   0   
      0   0   0   0   0   
      0   0   0   0   0   
      0   0   0   0   0   
      0   0   0   0   0   
      0   0   0   0   0   
      0   0   0   0   0   
      0   0   0   0   0   
      0   0   0   0   0   
      0   0   0   0   0   
      0   0   0   0   0   
      0   0   0   0   0   
      0   0   0   0   0   
      0   0   0   0   0   
      0   0   0   0   0   
      0   0   0   0   0   
      0   0   0   0   0   
      0   0   0   0   0   
      0   0   0   0   0   
      0   0   0   0   0   
      0   0   0   0   0   
      0   0   0   0   0   
      0   0   0   0   0   
      0   0   0   0   0   
      0   0   0   0   0   
      0   0   0   0   0   
      0   0   0   0   0   
      0   0   0   0   0   
      0   0   0   0   0   
      0   0   0   0   0   
      0   0   0   0   0   
      0   0   0   0   0   
      0   0   0   0   0   
      0   0   0   0   0   
      0   0   0   0   0   
      0   0   0   0   0   
      0   0   0   0   0   
      0   0   0   0   0   
      0   0   0   0   0   
      0   0   0   0   0   
      0   0   0   0   0   
      0   0   0   0   0   
      0   0   0   0   0   
      0   0   0   0   0   
      0   0   0   0   0   
      0   0   0   0   0   
      0   0   0   0   0   
      0   0   0   0   0   
      0   0   0   0   0   
      0   0   0   0   0   
      0   0   0   0   0   
      0   0   0   0   0   
      0   0   0   0   0   
      0   0   0   0   0   
      0   0   0   0   0   
      0   0   0   0   0   
      0   0   0   0   0   
      0   0   0   0   0   
      0   0   0   0   0   
      0   0   0   0   0   
      0   0   0   0   0   
      0   0   0   0   0   
      0   0   0   0   0   
      0   0   0   0   0   
      0   0   0   0   0   
      0   0   0   0   0   
      0   0   0   0   0   
      0   0   0   0   0   
      0   0   0   0   0   
      0   0   0   0   0   
      0   0   0   0   0   
      0   0   0   0   0   
      0   0   0   0   0   
      0   0   0   0   0   
      0   0   0   0   0   
      0   0   0   0   0   
      0   0   0   0   0   
      0   0   0   0   0   
      0   0   0   0   0   
      0   0   0   0   0   
      0   0   0   0   0   
      0   0   0   0   0   
      0   0   0   0   0   
      0   0   0   0   0   
      0   0   0   0   0   
      0   0   0   0   0   
      0   0   0   0   0   
      0   0   0   0   0   
      0   0   0   0   0   
      0   0   0   0   0   
      0   0   0   0   0   
      0   0   0   0   0   
      0   0   0   0   0   
      0   0   0   0   0   
      0   0   0   0   0   
      0   0   0   0   0   
      0   0   0   0   0   
      0   0   0   0   0   
      0   0   0   0   0   
      0   0   0   0   0   
      0   0   0   0   0   
      0   0   0   0   0   
      0   0   0   0   0   
      0   0   0   0   0   
      0   0   0   0   0   
      0   0   0   0   0   
      0   0   0   0   0   
      0   0   0   0   0   
      0   0   0   0   0   
      0   0   0   0   0   
      0   0   0   0   0   
      0   0   0   0   0   
      0   0   0   0   0   
      0   0   0   0   0   
      0   0   0   0   0   
      0   0   0   0   0   
      0   0   0   0   0   
      0   0   0   0   0   
      0   0   0   0   0   
      0   0   0   0   0   
      0   0   0   0   0   
      0   0   0   0   0   
      0   0   0   0   0   
      0   0   0   0   0   
      0   0   0   0   0   
      0   0   0   0   0   
      0   0   0   0   0   
      0   0   0   0   0   
      0   0   0   0   0   
      0   0   0   0   0   
      0   0   0   0   0   
      0   0   0   0   0   
      0   0   0   0   0   
      0   0   0   0   0   
      0   0   0   0   0   
      0   0   0   0   0   
      0   0   0   0   0   
      0   0   0   0   0   
      0   0   0   0   0   
      0   0   0   0   0   
      0   0   0   0   0   
      0   0   0   0   0   
      0   0   0   0   0   
      0   0   0   0   0   
      0   0   0   0   0   
      0   0   0   0   0   
      0   0   0   0   0   
      0   0   0   0   0   
      0   0   0   0   0   
      0   0   0   0   0   
      0   0   0   0   0   
      0   0   0   0   0   
      0   0   0   0   0   
      0   0   0   0   0   
      0   0   0   0   0   
      0   0   0   0   0   
      0   0   0   0   0   
      0   0   0   0   0   
      0   0   0   0   0   
      0   0   0   0   0   
      0   0   0   0   0   
      0   0   0   0   0   
      0   0   0   0   0   
      0   0   0   0   0   
      0   0   0   0   0   
      0   0   0   0   0   
      0   0   0   0   0   
      0   0   0   0   0   
      0   0   0   0   0   
      0   0   0   0   0   
      0   0   0   0   0   
      0   0   0   0   0   
      0   0   0   0   0   
      0   0   0   0   0   
      0   0   0   0   0   
      0   0   0   0   0   
      0   0   0   0   0   
      0   0   0   0   0   
      0   0   0   0   0   
      0   0   0   0   0   
      0   0   0   0   0   
      0   0   0   0   0   
      0   0   0   0   0   
      0   0   0   0   0   
      0   0   0   0   0   
      0   0   0   0   0   
      0   0   0   0   0   
      0   0   0   0   0   
      0   0   0   0   0   
      0   0   0   0   0   
      0   0   0   0   0   
      0   0   0   0   0   
      0   0   0   0   0   
      0   0   0   0   0   
      0   0   0   0   0   
      0   0   0   0   0   
      0   0   0   0   0   
      0   0   0   0   0   
      0   0   0   0   0   
      0   0   0   0   0   
      0   0   0   0   0   
      0   0   0   0   0   
      0   0   0   0   0   
      0   0   0   0   0   
      0   0   0   0   0   
      0   0   0   0   0   
      0   0   0   0   0   
      0   0   0   0   0   
      0   0   0   0   0   
      0   0   0   0   0   
      0   0   0   0   0   
      0   0   0   0   0   
      0   0   0   0   0   
      0   0   0   0   0   
      0   0   0   0   0   
      0   0   0   0   0   
      0   0   0   0   0   
      0   0   0   0   0   
      0   0   0   0   0   
      0   0   0   0   0   
      0   0   0   0   0   
      0   0   0   0   0   
      0   0   0   0   0   
      0   0   0   0   0   
      0   0   0   0   0   
      0   0   0   0   0   
      0   0   0   0   0   
      0   0   0   0   0   
      0   0   0   0   0   
      0   0   0   0   0   
      0   0   0   0   0   
      0   0   0   0   0   
      0   0   0   0   0   
      0   0   0   0   0   
      0   0   0   0   0   
      0   0   0   0   0   
      0   0   0   0   0   
      0   0   0   0   0   
      0   0   0   0   0   
      0   0   0   0   0   
      0   0   0   0   0   
      0   0   0   0   0   
      0   0   0   0   0   
      0   0   0   0   0   
      0   0   0   0   0   
      0   0   0   0   0   
      0   0   0   0   0   
      0   0   0   0   0   
      0   0   0   0   0   
      0   0   0   0   0   
      0   0   0   0   0   
      0   0   0   0   0   
      0   0   0   0   0   
      0   0   0   0   0   
      0   0   0   0   0   
      0   0   0   0   0   
      0   0   0   0   0   
      0   0   0   0   0   
      0   0   0   0   0   
      0   0   0   0   0   
      0   0   0   0   0   
      0   0   0   0   0   
      0   0   0   0   0   
      0   0   0   0   0   
      0   0   0   0   0   
      0   0   0   0   0   
      0   0   0   0   0   
      0   0   0   0   0   
      0   0   0   0   0   
      0   0   0   0   0   
      0   0   0   0   0   
      0   0   0   0   0   
      0   0   0   0   0   
      0   0   0   0   0   
      0   0   0   0   0   
      0   0   0   0   0   
      0   0   0   0   0   
      0   0   0   0   0   
      0   0   0   0   0   
      0   0   0   0   0   
      0   0   0   0   0   
      0   0   0   0   0   
      0   0   0   0   0   
      0   0   0   0   0   
      0   0   0   0   0   
      0   0   0   0   0   
      0   0   0   0   0   
      0   0   0   0   0   
      0   0   0   0   0   
      0   0   0   0   0   
      0   0   0   0   0   
      0   0   0   0   0   
      0   0   0   0   0   
      0   0   0   0   0   
      0   0   0   0   0   
      0   0   0   0   0   
      0   0   0   0   0   
      0   0   0   0   0   
      0   0   0   0   0   
      0   0   0   0   0   
      0   0   0   0   0   
      0   0   0   0   0   
      0   0   0   0   0   
      0   0   0   0   0   
      0   0   0   0   0   
      0   0   0   0   0   
      0   0   0   0   0   
      0   0   0   0   0   
      0   0   0   0   0   
      0   0   0   0   0   
      0   0   0   0   0   
      0.571218363531   0.571212122795   0.571193428541   0.571162364674   0.571119071168   
      0.571063744265   0.570996636711   0.570918058039   0.570828374844   0.570728011021   
      0.570617447931   0.570497224439   0.570367936766   0.57023023811   0.570084837954   
      0.569932501017   0.56977404576   0.569610342387   0.569442310286   0.569270914829   
      0.569097163494   0.56892210126   0.568746805236   0.56857237852   0.568399943276   
      0.568230633062   0.568065584441   0.56790592795   0.567752778509   0.567607225389   
      0.567470321871   0.567343074749   0.56722643385   0.567121281758   0.567028423929   
      0.566948579392   0.566882372233   0.566830324034   0.56679284744   0.566770240992   
      0.566762685349   0.566770240992   0.56679284744   0.566830324034   0.566882372233   
      0.566948579392   0.567028423929   0.567121281758   0.56722643385   0.567343074749   
      0.567470321871   0.567607225389   0.567752778509   0.56790592795   0.568065584441   
      0.568230633062   0.568399943276   0.56857237852   0.568746805236   0.56892210126   
      0.569097163494   0.569270914829   0.569442310286   0.569610342387   0.56977404576   
      0.569932501017   0.570084837954   0.57023023811   0.570367936766   0.570497224439   
      0.570617447931   0.570728011021   0.570828374844   0.570918058039   0.570996636711   
      0.571063744265   0.571119071168   0.571162364674   0.571193428541   0.571212122795   
      0.45853267493   0.458524014757   0.458498073045   0.458454966264   0.458394888738   
      0.458318112918   0.458224989754   0.458115949095   0.457991500103   0.457852231617   
      0.457698812393   0.457531991182   0.457352596528   0.457161536239   0.456959796416   
      0.45674843996   0.456528604452   0.456301499329   0.456068402245   0.45583065455   
      0.455589655812   0.455346857321   0.455103754536   0.454861878463   0.45462278596   
      0.454388049021   0.454159243084   0.453937934476   0.453725667118   0.453523948643   
      0.453334236125   0.453157921627   0.452996317802   0.452850643802   0.452722011752   
      0.452611414048   0.452519711739   0.452447624227   0.452395720518   0.452364412198   
      0.452353948304   0.452364412198   0.452395720518   0.452447624227   0.452519711739   
      0.452611414048   0.452722011752   0.452850643802   0.452996317802   0.453157921627   
      0.453334236125   0.453523948643   0.453725667118   0.453937934476   0.454159243084   
      0.454388049021   0.45462278596   0.454861878463   0.455103754536   0.455346857321   
      0.455589655812   0.45583065455   0.456068402245   0.456301499329   0.456528604452   
      0.45674843996   0.456959796416   0.457161536239   0.457352596528   0.457531991182   
      0.457698812393   0.457852231617   0.457991500103   0.458115949095   0.458224989754   
      0.458318112918   0.458394888738   0.458454966264   0.458498073045   0.458524014757   
      0.432744667673   0.432733510113   0.432700088302   0.432644554914   0.43256716461   
      0.432468274325   0.432348343623   0.432207935081   0.43204771464   0.43186845186   
      0.431671019994   0.431456395802   0.431225658992   0.430979991194   0.430720674351   
      0.430449088411   0.430166708208   0.429875099413   0.429575913461   0.429270881348   
      0.428961806224   0.428650554722   0.428339046986   0.428029245385   0.42772314195   
      0.427422744569   0.427130062059   0.426847088221   0.42657578507   0.426318065422   
      0.426075775089   0.425850674938   0.425644423093   0.425458557602   0.425294479845   
      0.425153439026   0.425036518017   0.424944620853   0.424878462118   0.424838558457   
      0.424825222374   0.424838558457   0.424878462118   0.424944620853   0.425036518017   
      0.425153439026   0.425294479845   0.425458557602   0.425644423093   0.425850674938   
      0.426075775089   0.426318065422   0.42657578507   0.426847088221   0.427130062059   
      0.427422744569   0.42772314195   0.428029245385   0.428339046986   0.428650554722   
      0.428961806224   0.429270881348   0.429575913461   0.429875099413   0.430166708208   
      0.430449088411   0.430720674351   0.430979991194   0.431225658992   0.431456395802   
      0.431671019994   0.43186845186   0.43204771464   0.432207935081   0.432348343623   
      0.432468274325   0.43256716461   0.432644554914   0.432700088302   0.432733510113   
      0.407209853951   0.40719625903   0.407155537742   0.407087880559   0.406993605087   
      0.406873156269   0.406727106616   0.406556156406   0.406361133796   0.406142994752   
      0.40590282271   0.405641827856   0.405361345921   0.405062836349   0.40474787973   
      0.404418174351   0.404075531751   0.403721871143   0.403359212607   0.402989668946   
      0.402615436133   0.402238782297   0.401862035223   0.401487568383   0.401117785537   
      0.400755104   0.400401936689   0.400060673133   0.399733659638   0.399423178861   
      0.399131429051   0.398860503276   0.398612368943   0.398388847944   0.39819159777   
      0.398022093912   0.397881613886   0.397771223149   0.397691763195   0.397643842046   
      0.397627827326   0.397643842046   0.397691763195   0.397771223149   0.397881613886   
      0.398022093912   0.39819159777   0.398388847944   0.398612368943   0.398860503276   
      0.399131429051   0.399423178861   0.399733659638   0.400060673133   0.400401936689   
      0.400755104   0.401117785537   0.401487568383   0.401862035223   0.402238782297   
      0.402615436133   0.402989668946   0.403359212607   0.403721871143   0.404075531751   
      0.404418174351   0.40474787973   0.405062836349   0.405361345921   0.405641827856   
      0.40590282271   0.406142994752   0.406361133796   0.406556156406   0.406727106616   
      0.406873156269   0.406993605087   0.407087880559   0.407155537742   0.40719625903   
      0.387212757441   0.387197378045   0.387151313492   0.387074784703   0.38696815993   
      0.386831954802   0.386666832326   0.386473602789   0.386253223473   0.386006798111   
      0.385735575962   0.385440950396   0.385124456873   0.384787770162   0.384432700693   
      0.384061189884   0.383675304331   0.383277228721   0.382869257394   0.382453784426   
      0.38203329221   0.381610338475   0.381187541754   0.380767565339   0.380353099794   
      0.379946844139   0.379551485875   0.379169680031   0.378804027479   0.378457052768   
      0.378131181789   0.377828719565   0.377551828512   0.377302507489   0.377082571988   
      0.376893635768   0.37673709425   0.376614109952   0.376525600209   0.376472227398   
      0.376454391822   0.376472227398   0.376525600209   0.376614109952   0.37673709425   
      0.376893635768   0.377082571988   0.377302507489   0.377551828512   0.377828719565   
      0.378131181789   0.378457052768   0.378804027479   0.379169680031   0.379551485875   
      0.379946844139   0.380353099794   0.380767565339   0.381187541754   0.381610338475   
      0.38203329221   0.382453784426   0.382869257394   0.383277228721   0.383675304331   
      0.384061189884   0.384432700693   0.384787770162   0.385124456873   0.385440950396   
      0.385735575962   0.386006798111   0.386253223473   0.386473602789   0.386666832326   
      0.386831954802   0.38696815993   0.387074784703   0.387151313492   0.387197378045   
      0.37165123334   0.37163468361   0.371585115491   0.371502772179   0.371388058927   
      0.371241542914   0.37106395298   0.370856179192   0.370619272129   0.37035444182   
      0.370063056206   0.369746639014   0.369406866911   0.369045565812   0.368664706196   
      0.368266397311   0.367852880134   0.367426518984   0.366989791684   0.366545278219   
      0.366095647823   0.365643644513   0.365192071071   0.364743771546   0.364301612385   
      0.363868462324   0.363447171227   0.363040548092   0.362651338464   0.362282201544   
      0.361935687284   0.36161421378   0.361320045288   0.361055271181   0.360821786147   
      0.360621271948   0.360455180996   0.360324722007   0.360230847953   0.360174246493   
      0.360155333027   0.360174246493   0.360230847953   0.360324722007   0.360455180996   
      0.360621271948   0.360821786147   0.361055271181   0.361320045288   0.36161421378   
      0.361935687284   0.362282201544   0.362651338464   0.363040548092   0.363447171227   
      0.363868462324   0.364301612385   0.364743771546   0.365192071071   0.365643644513   
      0.366095647823   0.366545278219   0.366989791684   0.367426518984   0.367852880134   
      0.368266397311   0.368664706196   0.369045565812   0.369406866911   0.369746639014   
      0.370063056206   0.37035444182   0.370619272129   0.370856179192   0.37106395298   
      0.371241542914   0.371388058927   0.371502772179   0.371585115491   0.37163468361   
      0.360503468943   0.360486236057   0.360434623417   0.360348889026   0.360229462709   
      0.360076945804   0.359892110668   0.359675899921   0.359429425359   0.359153966421   
      0.358850968114   0.358522038267   0.358168943989   0.3577936072   0.357398099098   
      0.356984633452   0.356555558584   0.356113347966   0.355660589332   0.355199972269   
      0.354734274248   0.354266345119   0.353799090115   0.353335451445   0.352878388606   
      0.352430857573   0.351995789077   0.35157606618   0.351174501429   0.350793813852   
      0.350436606098   0.350105342015   0.349802324987   0.349529677303   0.349289320862   
      0.349082959476   0.348912063006   0.348777853569   0.348681293981   0.348623078609   
      0.348603626748   0.348623078609   0.348681293981   0.348777853569   0.348912063006   
      0.349082959476   0.349289320862   0.349529677303   0.349802324987   0.350105342015   
      0.350436606098   0.350793813852   0.351174501429   0.35157606618   0.351995789077   
      0.352430857573   0.352878388606   0.353335451445   0.353799090115   0.354266345119   
      0.354734274248   0.355199972269   0.355660589332   0.356113347966   0.356555558584   
      0.356984633452   0.357398099098   0.3577936072   0.358168943989   0.358522038267   
      0.358850968114   0.359153966421   0.359429425359   0.359675899921   0.359892110668   
      0.360076945804   0.360229462709   0.360348889026   0.360434623417   0.360486236057   
      0.353392689445   0.35337509867   0.353322415334   0.353234906322   0.353113016174   
      0.352957366658   0.352768756086   0.352548158333   0.352296721459   0.352015765836   
      0.351706781676   0.351371425836   0.351011517767   0.350629034497   0.350226104495   
      0.349805000325   0.349368129957   0.348918026677   0.348457337493   0.347988810036   
      0.347515277911   0.347039644564   0.346564865689   0.346093930316   0.345629840692   
      0.345175591144   0.344734146131   0.34430841773   0.343901242798   0.343515360118   
      0.343153387785   0.342817801151   0.342510911599   0.342234846428   0.341991530119   
      0.341782667213   0.341609727024   0.341473930377   0.341376238539   0.341317344468   
      0.341297666488   0.341317344468   0.341376238539   0.341473930377   0.341609727024   
      0.341782667213   0.341991530119   0.342234846428   0.342510911599   0.342817801151   
      0.343153387785   0.343515360118   0.343901242798   0.34430841773   0.344734146131   
      0.345175591144   0.345629840692   0.346093930316   0.346564865689   0.347039644564   
      0.347515277911   0.347988810036   0.348457337493   0.348918026677   0.349368129957   
      0.349805000325   0.350226104495   0.350629034497   0.351011517767   0.351371425836   
      0.351706781676   0.352015765836   0.352296721459   0.352548158333   0.352768756086   
      0.352957366658   0.353113016174   0.353234906322   0.353322415334   0.35337509867   
      0.349950044822   0.349932304763   0.349879174956   0.349790926424   0.349668010555   
      0.349511058608   0.349320880935   0.349098465878   0.348844978228   0.348561757186   
      0.348250313669   0.347912326886   0.34754964002   0.347164254923   0.346758325672   
      0.346334150891   0.34589416473   0.345440926415   0.344977108315   0.344505482494   
      0.344028905742   0.343550303132   0.343072650167   0.342598953632   0.342132231303   
      0.341675490683   0.341231707   0.340803800688   0.340394614632   0.340006891433   
      0.339643251005   0.339306168752   0.338997954644   0.338720733424   0.338476426222   
      0.338266733777   0.3380931215   0.337956806533   0.337858746956   0.337799633272   
      0.337779882264   0.337799633272   0.337858746956   0.337956806533   0.3380931215   
      0.338266733777   0.338476426222   0.338720733424   0.338997954644   0.339306168752   
      0.339643251005   0.340006891433   0.340394614632   0.340803800688   0.341231707   
      0.341675490683   0.342132231303   0.342598953632   0.343072650167   0.343550303132   
      0.344028905742   0.344505482494   0.344977108315   0.345440926415   0.34589416473   
      0.346334150891   0.346758325672   0.347164254923   0.34754964002   0.347912326886   
      0.348250313669   0.348561757186   0.348844978228   0.349098465878   0.349320880935   
      0.349511058608   0.349668010555   0.349790926424   0.349879174956   0.349932304763   
      0.349950044822   0.349932304763   0.349879174956   0.349790926424   0.349668010555   
      0.349511058608   0.349320880935   0.349098465878   0.348844978228   0.348561757186   
      0.348250313669   0.347912326886   0.34754964002   0.347164254923   0.346758325672   
      0.346334150891   0.34589416473   0.345440926415   0.344977108315   0.344505482494   
      0.344028905742   0.343550303132   0.343072650167   0.342598953632   0.342132231303   
      0.341675490683   0.341231707   0.340803800688   0.340394614632   0.340006891433   
      0.339643251005   0.339306168752   0.338997954644   0.338720733424   0.338476426222   
      0.338266733777   0.3380931215   0.337956806533   0.337858746956   0.337799633272   
      0.337779882264   0.337799633272   0.337858746956   0.337956806533   0.3380931215   
      0.338266733777   0.338476426222   0.338720733424   0.338997954644   0.339306168752   
      0.339643251005   0.340006891433   0.340394614632   0.340803800688   0.341231707   
      0.341675490683   0.342132231303   0.342598953632   0.343072650167   0.343550303132   
      0.344028905742   0.344505482494   0.344977108315   0.345440926415   0.34589416473   
      0.346334150891   0.346758325672   0.347164254923   0.34754964002   0.347912326886   
      0.348250313669   0.348561757186   0.348844978228   0.349098465878   0.349320880935   
      0.349511058608   0.349668010555   0.349790926424   0.349879174956   0.349932304763   
      0.353392689445   0.35337509867   0.353322415334   0.353234906322   0.353113016174   
      0.352957366658   0.352768756086   0.352548158333   0.352296721459   0.352015765836   
      0.351706781676   0.351371425836   0.351011517767   0.350629034497   0.350226104495   
      0.349805000325   0.349368129957   0.348918026677   0.348457337493   0.347988810036   
      0.347515277911   0.347039644564   0.346564865689   0.346093930316   0.345629840692   
      0.345175591144   0.344734146131   0.34430841773   0.343901242798   0.343515360118   
      0.343153387785   0.342817801151   0.342510911599   0.342234846428   0.341991530119   
      0.341782667213   0.341609727024   0.341473930377   0.341376238539   0.341317344468   
      0.341297666488   0.341317344468   0.341376238539   0.341473930377   0.341609727024   
      0.341782667213   0.341991530119   0.342234846428   0.342510911599   0.342817801151   
      0.343153387785   0.343515360118   0.343901242798   0.34430841773   0.344734146131   
      0.345175591144   0.345629840692   0.346093930316   0.346564865689   0.347039644564   
      0.347515277911   0.347988810036   0.348457337493   0.348918026677   0.349368129957   
      0.349805000325   0.350226104495   0.350629034497   0.351011517767   0.351371425836   
      0.351706781676   0.352015765836   0.352296721459   0.352548158333   0.352768756086   
      0.352957366658   0.353113016174   0.353234906322   0.353322415334   0.35337509867   
      0.360503468943   0.360486236057   0.360434623417   0.360348889026   0.360229462709   
      0.360076945804   0.359892110668   0.359675899921   0.359429425359   0.359153966421   
      0.358850968114   0.358522038267   0.358168943989   0.3577936072   0.357398099098   
      0.356984633452   0.356555558584   0.356113347966   0.355660589332   0.355199972269   
      0.354734274248   0.354266345119   0.353799090115   0.353335451445   0.352878388606   
      0.352430857573   0.351995789077   0.35157606618   0.351174501429   0.350793813852   
      0.350436606098   0.350105342015   0.349802324987   0.349529677303   0.349289320862   
      0.349082959476   0.348912063006   0.348777853569   0.348681293981   0.348623078609   
      0.348603626748   0.348623078609   0.348681293981   0.348777853569   0.348912063006   
      0.349082959476   0.349289320862   0.349529677303   0.349802324987   0.350105342015   
      0.350436606098   0.350793813852   0.351174501429   0.35157606618   0.351995789077   
      0.352430857573   0.352878388606   0.353335451445   0.353799090115   0.354266345119   
      0.354734274248   0.355199972269   0.355660589332   0.356113347966   0.356555558584   
      0.356984633452   0.357398099098   0.3577936072   0.358168943989   0.358522038267   
      0.358850968114   0.359153966421   0.359429425359   0.359675899921   0.359892110668   
      0.360076945804   0.360229462709   0.360348889026   0.360434623417   0.360486236057   
      0.37165123334   0.37163468361   0.371585115491   0.371502772179   0.371388058927   
      0.371241542914   0.37106395298   0.370856179192   0.370619272129   0.37035444182   
      0.370063056206   0.369746639014   0.369406866911   0.369045565812   0.368664706196   
      0.368266397311   0.367852880134   0.367426518984   0.366989791684   0.366545278219   
      0.366095647823   0.365643644513   0.365192071071   0.364743771546   0.364301612385   
      0.363868462324   0.363447171227   0.363040548092   0.362651338464   0.362282201544   
      0.361935687284   0.36161421378   0.361320045288   0.361055271181   0.360821786147   
      0.360621271948   0.360455180996   0.360324722007   0.360230847953   0.360174246493   
      0.360155333027   0.360174246493   0.360230847953   0.360324722007   0.360455180996   
      0.360621271948   0.360821786147   0.361055271181   0.361320045288   0.36161421378   
      0.361935687284   0.362282201544   0.362651338464   0.363040548092   0.363447171227   
      0.363868462324   0.364301612385   0.364743771546   0.365192071071   0.365643644513   
      0.366095647823   0.366545278219   0.366989791684   0.367426518984   0.367852880134   
      0.368266397311   0.368664706196   0.369045565812   0.369406866911   0.369746639014   
      0.370063056206   0.37035444182   0.370619272129   0.370856179192   0.37106395298   
      0.371241542914   0.371388058927   0.371502772179   0.371585115491   0.37163468361   
      0.387212757441   0.387197378045   0.387151313492   0.387074784703   0.38696815993   
      0.386831954802   0.386666832326   0.386473602789   0.386253223473   0.386006798111   
      0.385735575962   0.385440950396   0.385124456873   0.384787770162   0.384432700693   
      0.384061189884   0.383675304331   0.383277228721   0.382869257394   0.382453784426   
      0.38203329221   0.381610338475   0.381187541754   0.380767565339   0.380353099794   
      0.379946844139   0.379551485875   0.379169680031   0.378804027479   0.378457052768   
      0.378131181789   0.377828719565   0.377551828512   0.377302507489   0.377082571988   
      0.376893635768   0.37673709425   0.376614109952   0.376525600209   0.376472227398   
      0.376454391822   0.376472227398   0.376525600209   0.376614109952   0.37673709425   
      0.376893635768   0.377082571988   0.377302507489   0.377551828512   0.377828719565   
      0.378131181789   0.378457052768   0.378804027479   0.379169680031   0.379551485875   
      0.379946844139   0.380353099794   0.380767565339   0.381187541754   0.381610338475   
      0.38203329221   0.382453784426   0.382869257394   0.383277228721   0.383675304331   
      0.384061189884   0.384432700693   0.384787770162   0.385124456873   0.385440950396   
      0.385735575962   0.386006798111   0.386253223473   0.386473602789   0.386666832326   
      0.386831954802   0.38696815993   0.387074784703   0.387151313492   0.387197378045   
      0.407209853951   0.40719625903   0.407155537742   0.407087880559   0.406993605087   