<?xml version="1.0"?>
<VTKFile type="ImageData" version="0.1" byte_order="LittleEndian">
  <ImageData WholeExtent="0 79 0 19 0 19" Origin="0 0 0" Spacing="1 1 1">
  <Piece Extent="0 79 0 19 0 19">
    <PointData Scalars="density">
       <DataArray type="Float32" Name="bluedensity" NumberOfComponents="1" format="ascii">
      0   0   0   0   0   
      0   0   0   0   0   
      0   0   0   0   0   
      0   0   0   0   0   
      0   0   0   0   0   
      0   0   0   0   0   
      0   0   0   0   0   
      0   0   0   0   0   
      0   0   0   0   0   
      0   0   0   0   0   
      0   0   0   0   0   
      0   0   0   0   0   
      0   0   0   0   0   
      0   0   0   0   0   
      0   0   0   0   0   
      0   0   0   0   0   
      0   0   0   0   0   
      0   0   0   0   0   
      0   0   0   0   0   
      0   0   0   0   0   
      0   0   0   0   0   
      0   0   0   0   0   
      0   0   0   0   0   
      0   0   0   0   0   
      0   0   0   0   0   
      0   0   0   0   0   
      0   0   0   0   0   
      0   0   0   0   0   
      0   0   0   0   0   
      0   0   0   0   0   
      0   0   0   0   0   
      0   0   0   0   0   
      0   0   0   0   0   
      0   0   0   0   0   
      0   0   0   0   0   
      0   0   0   0   0   
      0   0   0   0   0   
      0   0   0   0   0   
      0   0   0   0   0   
      0   0   0   0   0   
      0   0   0   0   0   
      0   0   0   0   0   
      0   0   0   0   0   
      0   0   0   0   0   
      0   0   0   0   0   
      0   0   0   0   0   
      0   0   0   0   0   
      0   0   0   0   0   
      0   0   0   0   0   
      0   0   0   0   0   
      0   0   0   0   0   
      0   0   0   0   0   
      0   0   0   0   0   
      0   0   0   0   0   
      0   0   0   0   0   
      0   0   0   0   0   
      0   0   0   0   0   
      0   0   0   0   0   
      0   0   0   0   0   
      0   0   0   0   0   
      0   0   0   0   0   
      0   0   0   0   0   
      0   0   0   0   0   
      0   0   0   0   0   
      0   0   0   0   0   
      0   0   0   0   0   
      0   0   0   0   0   
      0   0   0   0   0   
      0   0   0   0   0   
      0   0   0   0   0   
      0   0   0   0   0   
      0   0   0   0   0   
      0   0   0   0   0   
      0   0   0   0   0   
      0   0   0   0   0   
      0   0   0   0   0   
      0   0   0   0   0   
      0   0   0   0   0   
      0   0   0   0   0   
      0   0   0   0   0   
      0   0   0   0   0   
      0   0   0   0   0   
      0   0   0   0   0   
      0   0   0   0   0   
      0   0   0   0   0   
      0   0   0   0   0   
      0   0   0   0   0   
      0   0   0   0   0   
      0   0   0   0   0   
      0   0   0   0   0   
      0   0   0   0   0   
      0   0   0   0   0   
      0   0   0   0   0   
      0   0   0   0   0   
      0   0   0   0   0   
      0   0   0   0   0   
      0   0   0   0   0   
      0   0   0   0   0   
      0   0   0   0   0   
      0   0   0   0   0   
      0   0   0   0   0   
      0   0   0   0   0   
      0   0   0   0   0   
      0   0   0   0   0   
      0   0   0   0   0   
      0   0   0   0   0   
      0   0   0   0   0   
      0   0   0   0   0   
      0   0   0   0   0   
      0   0   0   0   0   
      0   0   0   0   0   
      0   0   0   0   0   
      0   0   0   0   0   
      0   0   0   0   0   
      0   0   0   0   0   
      0   0   0   0   0   
      0   0   0   0   0   
      0   0   0   0   0   
      0   0   0   0   0   
      0   0   0   0   0   
      0   0   0   0   0   
      0   0   0   0   0   
      0   0   0   0   0   
      0   0   0   0   0   
      0   0   0   0   0   
      0   0   0   0   0   
      0   0   0   0   0   
      0   0   0   0   0   
      0   0   0   0   0   
      0   0   0   0   0   
      0   0   0   0   0   
      0   0   0   0   0   
      0   0   0   0   0   
      0   0   0   0   0   
      0   0   0   0   0   
      0   0   0   0   0   
      0   0   0   0   0   
      0   0   0   0   0   
      0   0   0   0   0   
      0   0   0   0   0   
      0   0   0   0   0   
      0   0   0   0   0   
      0   0   0   0   0   
      0   0   0   0   0   
      0   0   0   0   0   
      0   0   0   0   0   
      0   0   0   0   0   
      0   0   0   0   0   
      0   0   0   0   0   
      0   0   0   0   0   
      0   0   0   0   0   
      0   0   0   0   0   
      0   0   0   0   0   
      0   0   0   0   0   
      0   0   0   0   0   
      0   0   0   0   0   
      0   0   0   0   0   
      0   0   0   0   0   
      0   0   0   0   0   
      0   0   0   0   0   
      0   0   0   0   0   
      0   0   0   0   0   
      0   0   0   0   0   
      0   0   0   0   0   
      0   0   0   0   0   
      0   0   0   0   0   
      0   0   0   0   0   
      0   0   0   0   0   
      0   0   0   0   0   
      0   0   0   0   0   
      0   0   0   0   0   
      0   0   0   0   0   
      0   0   0   0   0   
      0   0   0   0   0   
      0   0   0   0   0   
      0   0   0   0   0   
      0   0   0   0   0   
      0   0   0   0   0   
      0   0   0   0   0   
      0   0   0   0   0   
      0   0   0   0   0   
      0   0   0   0   0   
      0   0   0   0   0   
      0   0   0   0   0   
      0   0   0   0   0   
      0   0   0   0   0   
      0   0   0   0   0   
      0   0   0   0   0   
      0   0   0   0   0   
      0   0   0   0   0   
      0   0   0   0   0   
      0   0   0   0   0   
      0   0   0   0   0   
      0   0   0   0   0   
      0   0   0   0   0   
      0   0   0   0   0   
      0   0   0   0   0   
      0   0   0   0   0   
      0   0   0   0   0   
      0   0   0   0   0   
      0   0   0   0   0   
      0   0   0   0   0   
      0   0   0   0   0   
      0   0   0   0   0   
      0   0   0   0   0   
      0   0   0   0   0   
      0   0   0   0   0   
      0   0   0   0   0   
      0   0   0   0   0   
      0   0   0   0   0   
      0   0   0   0   0   
      0   0   0   0   0   
      0   0   0   0   0   
      0   0   0   0   0   
      0   0   0   0   0   
      0   0   0   0   0   
      0   0   0   0   0   
      0   0   0   0   0   
      0   0   0   0   0   
      0   0   0   0   0   
      0   0   0   0   0   
      0   0   0   0   0   
      0   0   0   0   0   
      0   0   0   0   0   
      0   0   0   0   0   
      0   0   0   0   0   
      0   0   0   0   0   
      0   0   0   0   0   
      0   0   0   0   0   
      0   0   0   0   0   
      0   0   0   0   0   
      0   0   0   0   0   
      0   0   0   0   0   
      0   0   0   0   0   
      0   0   0   0   0   
      0   0   0   0   0   
      0   0   0   0   0   
      0   0   0   0   0   
      0   0   0   0   0   
      0   0   0   0   0   
      0   0   0   0   0   
      0   0   0   0   0   
      0   0   0   0   0   
      0   0   0   0   0   
      0   0   0   0   0   
      0   0   0   0   0   
      0   0   0   0   0   
      0   0   0   0   0   
      0   0   0   0   0   
      0   0   0   0   0   
      0   0   0   0   0   
      0   0   0   0   0   
      0   0   0   0   0   
      0   0   0   0   0   
      0   0   0   0   0   
      0   0   0   0   0   
      0   0   0   0   0   
      0   0   0   0   0   
      0   0   0   0   0   
      0   0   0   0   0   
      0   0   0   0   0   
      0   0   0   0   0   
      0   0   0   0   0   
      0   0   0   0   0   
      0   0   0   0   0   
      0   0   0   0   0   
      0   0   0   0   0   
      0   0   0   0   0   
      0   0   0   0   0   
      0   0   0   0   0   
      0   0   0   0   0   
      0   0   0   0   0   
      0   0   0   0   0   
      0   0   0   0   0   
      0   0   0   0   0   
      0   0   0   0   0   
      0   0   0   0   0   
      0   0   0   0   0   
      0   0   0   0   0   
      0   0   0   0   0   
      0   0   0   0   0   
      0   0   0   0   0   
      0   0   0   0   0   
      0   0   0   0   0   
      0   0   0   0   0   
      0   0   0   0   0   
      0   0   0   0   0   
      0   0   0   0   0   
      0   0   0   0   0   
      0   0   0   0   0   
      0   0   0   0   0   
      0   0   0   0   0   
      0   0   0   0   0   
      0   0   0   0   0   
      0   0   0   0   0   
      0   0   0   0   0   
      0   0   0   0   0   
      0   0   0   0   0   
      0   0   0   0   0   
      0   0   0   0   0   
      0   0   0   0   0   
      0   0   0   0   0   
      0   0   0   0   0   
      0   0   0   0   0   
      0   0   0   0   0   
      0   0   0   0   0   
      0   0   0   0   0   
      0   0   0   0   0   
      0   0   0   0   0   
      0   0   0   0   0   
      0   0   0   0   0   
      0   0   0   0   0   
      0   0   0   0   0   
      0   0   0   0   0   
      0   0   0   0   0   
      0   0   0   0   0   
      0   0   0   0   0   
      0   0   0   0   0   
      0   0   0   0   0   
      0   0   0   0   0   
      0   0   0   0   0   
      0   0   0   0   0   
      0   0   0   0   0   
      0   0   0   0   0   
      0   0   0   0   0   
      0   0   0   0   0   
      0   0   0   0   0   
      0   0   0   0   0   
      0   0   0   0   0   
      0   0   0   0   0   
      0   0   0   0   0   
      0   0   0   0   0   
      0   0   0   0   0   
      0   0   0   0   0   
      0   0   0   0   0   
      0   0   0   0   0   
      0.578298680164   0.578275038561   0.578204110343   0.578085886098   0.5779203529   
      0.577707498605   0.577447318194   0.57713982247   0.576785049555   0.576383079656   
      0.575934053729   0.575438196645   0.574895845565   0.574307484145   0.573673783141   
      0.57299564777   0.5722742719   0.571511198712   0.57070838692   0.569868280938   
      0.568993882624   0.568088821349   0.567157418392   0.566204740882   0.565236640102   
      0.564259768761   0.56328157211   0.562310248487   0.561354676073   0.56042430424   
      0.559529009842   0.558678920905   0.557884212323   0.557154880133   0.556500502538   
      0.55592999704   0.555451383634   0.55507156402   0.55479612631   0.554629183616   
      0.554573253521   0.554629183616   0.55479612631   0.55507156402   0.555451383634   
      0.55592999704   0.556500502538   0.557154880133   0.557884212323   0.558678920905   
      0.559529009842   0.56042430424   0.561354676073   0.562310248487   0.56328157211   
      0.564259768761   0.565236640102   0.566204740882   0.567157418392   0.568088821349   
      0.568993882624   0.569868280938   0.57070838692   0.571511198712   0.5722742719   
      0.57299564777   0.573673783141   0.574307484145   0.574895845565   0.575438196645   
      0.575934053729   0.576383079656   0.576785049555   0.57713982247   0.577447318194   
      0.577707498605   0.5779203529   0.578085886098   0.578204110343   0.578275038561   
      0.468664899883   0.468632290942   0.468534452931   0.468371353594   0.468142943625   
      0.467849163579   0.467489954043   0.467065269541   0.466575096786   0.466019478024   
      0.465398540291   0.464712531483   0.463961864123   0.463147167621   0.462269349654   
      0.461329666902   0.460329804928   0.459271966268   0.458158964954   0.456994324688   
      0.455782376759   0.454528352719   0.453238465806   0.451919974375   0.450581220239   
      0.449231634997   0.447881708215   0.446542912737   0.445227584414   0.443948756009   
      0.442719947727   0.441554919574   0.4404673932   0.439470752915   0.438577736973   
      0.437800130854   0.437148474292   0.4366317931   0.436257365691   0.436030532648   
      0.435954555957   0.436030532648   0.436257365691   0.4366317931   0.437148474292   
      0.437800130854   0.438577736973   0.439470752915   0.4404673932   0.441554919574   
      0.442719947727   0.443948756009   0.445227584414   0.446542912737   0.447881708215   
      0.449231634997   0.450581220239   0.451919974375   0.453238465806   0.454528352719   
      0.455782376759   0.456994324688   0.458158964954   0.459271966268   0.460329804928   
      0.461329666902   0.462269349654   0.463147167621   0.463961864123   0.464712531483   
      0.465398540291   0.466019478024   0.466575096786   0.467065269541   0.467489954043   
      0.467849163579   0.468142943625   0.468371353594   0.468534452931   0.468632290942   
      0.446106812959   0.446064360279   0.445936993036   0.445724685567   0.445427401683   
      0.445045104856   0.444577773125   0.444025419322   0.443388117415   0.442666035874   
      0.441859479048   0.440968937598   0.439995148912   0.438939168278   0.437802451198   
      0.436586946683   0.435295200628   0.433930467334   0.432496826133   0.430999298697   
      0.429443961353   0.427838045436   0.42619001783   0.424509633354   0.422807950829   
      0.421097305601   0.41939123298   0.417704339535   0.416052122111   0.414450737707   
      0.412916730521   0.411466725201   0.410117097464   0.408883634363   0.40778119679   
      0.406823396126   0.406022295653   0.405388145588   0.404929158643   0.404651331208   
      0.404558313553   0.404651331208   0.404929158643   0.405388145588   0.406022295653   
      0.406823396126   0.40778119679   0.408883634363   0.410117097464   0.411466725201   
      0.412916730521   0.414450737707   0.416052122111   0.417704339535   0.41939123298   
      0.421097305601   0.422807950829   0.424509633354   0.42619001783   0.427838045436   
      0.429443961353   0.430999298697   0.432496826133   0.433930467334   0.435295200628   
      0.436586946683   0.437802451198   0.438939168278   0.439995148912   0.440968937598   
      0.441859479048   0.442666035874   0.443388117415   0.444025419322   0.444577773125   
      0.445045104856   0.445427401683   0.445724685567   0.445936993036   0.446064360279   
      0.423843295075   0.423790667339   0.423632786119   0.423369660056   0.423001312602   
      0.422527795987   0.421949211535   0.421265737081   0.420477662393   0.41958543364   
      0.418589707987   0.417491419347   0.416291856148   0.414992751592   0.413596386295   
      0.412105702389   0.410524427068   0.408857202261   0.407109715618   0.405288826477   
      0.40340267905   0.401460793972   0.399474128791   0.397455098204   0.395417545939   
      0.393376662298   0.391348844301   0.389351498995   0.387402794354   0.385521365888   
      0.383725990146   0.382035238362   0.380467124319   0.379038760039   0.377766031344   
      0.376663302921   0.375743159702   0.375016188556   0.374490801843   0.374173102556   
      0.374066789736   0.374173102556   0.374490801843   0.375016188556   0.375743159702   
      0.376663302921   0.377766031344   0.379038760039   0.380467124319   0.382035238362   
      0.383725990146   0.385521365888   0.387402794354   0.389351498995   0.391348844301   
      0.393376662298   0.395417545939   0.397455098204   0.399474128791   0.401460793972   
      0.40340267905   0.405288826477   0.407109715618   0.408857202261   0.410524427068   
      0.412105702389   0.413596386295   0.414992751592   0.416291856148   0.417491419347   
      0.418589707987   0.41958543364   0.420477662393   0.421265737081   0.421949211535   
      0.422527795987   0.423001312602   0.423369660056   0.423632786119   0.423790667339   
      0.406379331752   0.406318628197   0.406136537658   0.405833123882   0.405408504455   
      0.404862868261   0.404196500788   0.403409818098   0.402503410441   0.401478096595   
      0.400334989978   0.399075577433   0.397701811268   0.39621621452   0.39462199862   
      0.39292319149   0.391124772734   0.389232810978   0.387254596724   0.385198762495   
      0.383075380742   0.380896029305   0.378673814371   0.376423342062   0.374160632139   
      0.371902970702   0.369668702938   0.367476971504   0.365347410425   0.36329980791   
      0.361353753692   0.359528287115   0.357841561162   0.356310535129   0.35495070512   
      0.353775877513   0.352797986654   0.352026954589   0.351470588313   0.351134508628   
      0.351022104618   0.351134508628   0.351470588313   0.352026954589   0.352797986654   
      0.353775877513   0.35495070512   0.356310535129   0.357841561162   0.359528287115   
      0.361353753692   0.36329980791   0.365347410425   0.367476971504   0.369668702938   
      0.371902970702   0.374160632139   0.376423342062   0.378673814371   0.380896029305   
      0.383075380742   0.385198762495   0.387254596724   0.389232810978   0.391124772734   
      0.39292319149   0.39462199862   0.39621621452   0.397701811268   0.399075577433   
      0.400334989978   0.401478096595   0.402503410441   0.403409818098   0.404196500788   
      0.404862868261   0.405408504455   0.405833123882   0.406136537658   0.406318628197   
      0.392590837135   0.392524331338   0.392324853509   0.391992526309   0.391527567527   
      0.390930310585   0.39020123418   0.389341001908   0.388350512889   0.387230964414   
      0.385983927594   0.384611436651   0.383116092047   0.381501176825   0.379770784458   
      0.377929955128   0.375984815703   0.373942716866   0.371812359078   0.36960389755   
      0.367329015415   0.365000954221   0.362634491903   0.360245860708   0.357852601154   
      0.355473352661   0.353127586641   0.35083529283   0.348616633873   0.346491585881   
      0.344479583608   0.342599187671   0.340867788313   0.339301355817   0.337914242642   
      0.336719037297   0.335726465557   0.334945331306   0.334382487337   0.33404282593   
      0.333929279807   0.33404282593   0.334382487337   0.334945331306   0.335726465557   
      0.336719037297   0.337914242642   0.339301355817   0.340867788313   0.342599187671   
      0.344479583608   0.346491585881   0.348616633873   0.35083529283   0.353127586641   
      0.355473352661   0.357852601154   0.360245860708   0.362634491903   0.365000954221   
      0.367329015415   0.36960389755   0.371812359078   0.373942716866   0.375984815703   
      0.377929955128   0.379770784458   0.381501176825   0.383116092047   0.384611436651   
      0.385983927594   0.387230964414   0.388350512889   0.389341001908   0.39020123418   
      0.390930310585   0.391527567527   0.391992526309   0.392324853509   0.392524331338   
      0.382563588249   0.382493309277   0.382282528648   0.381931419682   0.381440286266   
      0.380809585883   0.380039962807   0.379132292343   0.378087737101   0.37690781626   
      0.37559448864   0.374150249981   0.372578244149   0.370882387068   0.369067500817   
      0.367139453753   0.365105300697   0.362973415258   0.36075360463   0.358457195868   
      0.356097082101   0.353687717708   0.351245053447   0.34878640583   0.346330259722   
      0.343896008572   0.341503642397   0.339173398716   0.336925395337   0.334779265652   
      0.332753816489   0.33086672579   0.329134292762   0.327571247442   0.326190620637   
      0.325003669692   0.324019851166   0.323246828613   0.322690502345   0.322355048326   
      0.322242954863   0.322355048326   0.322690502345   0.323246828613   0.324019851166   
      0.325003669692   0.326190620637   0.327571247442   0.329134292762   0.33086672579   
      0.332753816489   0.334779265652   0.336925395337   0.339173398716   0.341503642397   
      0.343896008572   0.346330259722   0.34878640583   0.351245053447   0.353687717708   
      0.356097082101   0.358457195868   0.36075360463   0.362973415258   0.365105300697   
      0.367139453753   0.369067500817   0.370882387068   0.372578244149   0.374150249981   
      0.37559448864   0.37690781626   0.378087737101   0.379132292343   0.380039962807   
      0.380809585883   0.381440286266   0.381931419682   0.382282528648   0.382493309277   
      0.376092170478   0.376019676879   0.375802264296   0.375440142192   0.37493367592   
      0.37428341159   0.373490111864   0.372554803533   0.371478837828   0.370263964374   
      0.368912419418   0.367427028514   0.365811323022   0.364069668684   0.362207403089   
      0.360230977058   0.358148093039   0.355967831639   0.353700755697   0.351358980198   
      0.34895619617   0.346507637833   0.344029984899   0.341541196052   0.339060274963   
      0.336606976234   0.33420146457   0.331863945415   0.329614288442   0.327471666082   
      0.32545422755   0.32357882481   0.32186080123   0.320313847162   0.318949920246   
      0.317779222675   0.316810223542   0.316049711921   0.31550286568   0.315173321771   
      0.315063235826   0.315173321771   0.31550286568   0.316049711921   0.316810223542   
      0.317779222675   0.318949920246   0.320313847162   0.32186080123   0.32357882481   
      0.32545422755   0.327471666082   0.329614288442   0.331863945415   0.33420146457   
      0.336606976234   0.339060274963   0.341541196052   0.344029984899   0.346507637833   
      0.34895619617   0.351358980198   0.353700755697   0.355967831639   0.358148093039   
      0.360230977058   0.362207403089   0.364069668684   0.365811323022   0.367427028514   
      0.368912419418   0.370263964374   0.371478837828   0.372554803533   0.373490111864   
      0.37428341159   0.37493367592   0.375440142192   0.375802264296   0.376019676879   
      0.372936199985   0.372862691062   0.37264223868   0.372275071022   0.371761585294   
      0.371102373575   0.370298259994   0.369350350062   0.368260093117   0.367029358702   
      0.365660527455   0.364156596516   0.362521298628   0.360759232888   0.35887600361   
      0.356878361872   0.354774342364   0.352573386145   0.350286438268   0.34792600826   
      0.345506181493   0.343042570962   0.340552201959   0.33805332667   0.335565171424   
      0.333107625579   0.330700887001   0.328365083903   0.326119895573   0.323984194794   
      0.321975732406   0.32011087981   0.318404439001   0.316869522858   0.315517501807   
      0.314358007471   0.313398979981   0.312646743474   0.312106093932   0.311780384598   
      0.311671596491   0.311780384598   0.312106093932   0.312646743474   0.313398979981   
      0.314358007471   0.315517501807   0.316869522858   0.318404439001   0.32011087981   
      0.321975732406   0.323984194794   0.326119895573   0.328365083903   0.330700887001   
      0.333107625579   0.335565171424   0.33805332667   0.340552201959   0.343042570962   
      0.345506181493   0.34792600826   0.350286438268   0.352573386145   0.354774342364   
      0.356878361872   0.35887600361   0.360759232888   0.362521298628   0.364156596516   
      0.365660527455   0.367029358702   0.368260093117   0.369350350062   0.370298259994   
      0.371102373575   0.371761585294   0.372275071022   0.37264223868   0.372862691062   
      0.372936199985   0.372862691062   0.37264223868   0.372275071022   0.371761585294   
      0.371102373575   0.370298259994   0.369350350062   0.368260093117   0.367029358702   
      0.365660527455   0.364156596516   0.362521298628   0.360759232888   0.35887600361   
      0.356878361872   0.354774342364   0.352573386145   0.350286438268   0.34792600826   
      0.345506181493   0.343042570962   0.340552201959   0.33805332667   0.335565171424   
      0.333107625579   0.330700887001   0.328365083903   0.326119895573   0.323984194794   
      0.321975732406   0.32011087981   0.318404439001   0.316869522858   0.315517501807   
      0.314358007471   0.313398979981   0.312646743474   0.312106093932   0.311780384598   
      0.311671596491   0.311780384598   0.312106093932   0.312646743474   0.313398979981   
      0.314358007471   0.315517501807   0.316869522858   0.318404439001   0.32011087981   
      0.321975732406   0.323984194794   0.326119895573   0.328365083903   0.330700887001   
      0.333107625579   0.335565171424   0.33805332667   0.340552201959   0.343042570962   
      0.345506181493   0.34792600826   0.350286438268   0.352573386145   0.354774342364   
      0.356878361872   0.35887600361   0.360759232888   0.362521298628   0.364156596516   
      0.365660527455   0.367029358702   0.368260093117   0.369350350062   0.370298259994   
      0.371102373575   0.371761585294   0.372275071022   0.37264223868   0.372862691062   
      0.376092170478   0.376019676879   0.375802264296   0.375440142192   0.37493367592   
      0.37428341159   0.373490111864   0.372554803533   0.371478837828   0.370263964374   
      0.368912419418   0.367427028514   0.365811323022   0.364069668684   0.362207403089   
      0.360230977058   0.358148093039   0.355967831639   0.353700755697   0.351358980198   
      0.34895619617   0.346507637833   0.344029984899   0.341541196052   0.339060274963   
      0.336606976234   0.33420146457   0.331863945415   0.329614288442   0.327471666082   
      0.32545422755   0.32357882481   0.32186080123   0.320313847162   0.318949920246   
      0.317779222675   0.316810223542   0.316049711921   0.31550286568   0.315173321771   
      0.315063235826   0.315173321771   0.31550286568   0.316049711921   0.316810223542   
      0.317779222675   0.318949920246   0.320313847162   0.32186080123   0.32357882481   
      0.32545422755   0.327471666082   0.329614288442   0.331863945415   0.33420146457   
      0.336606976234   0.339060274963   0.341541196052   0.344029984899   0.346507637833   
      0.34895619617   0.351358980198   0.353700755697   0.355967831639   0.358148093039   
      0.360230977058   0.362207403089   0.364069668684   0.365811323022   0.367427028514   
      0.368912419418   0.370263964374   0.371478837828   0.372554803533   0.373490111864   
      0.37428341159   0.37493367592   0.375440142192   0.375802264296   0.376019676879   
      0.382563588249   0.382493309277   0.382282528648   0.381931419682   0.381440286266   
      0.380809585883   0.380039962807   0.379132292343   0.378087737101   0.37690781626   
      0.37559448864   0.374150249981   0.372578244149   0.370882387068   0.369067500817   
      0.367139453753   0.365105300697   0.362973415258   0.36075360463   0.358457195868   
      0.356097082101   0.353687717708   0.351245053447   0.34878640583   0.346330259722   
      0.343896008572   0.341503642397   0.339173398716   0.336925395337   0.334779265652   
      0.332753816489   0.33086672579   0.329134292762   0.327571247442   0.326190620637   
      0.325003669692   0.324019851166   0.323246828613   0.322690502345   0.322355048326   
      0.322242954863   0.322355048326   0.322690502345   0.323246828613   0.324019851166   
      0.325003669692   0.326190620637   0.327571247442   0.329134292762   0.33086672579   
      0.332753816489   0.334779265652   0.336925395337   0.339173398716   0.341503642397   
      0.343896008572   0.346330259722   0.34878640583   0.351245053447   0.353687717708   
      0.356097082101   0.358457195868   0.36075360463   0.362973415258   0.365105300697   
      0.367139453753   0.369067500817   0.370882387068   0.372578244149   0.374150249981   
      0.37559448864   0.37690781626   0.378087737101   0.379132292343   0.380039962807   
      0.380809585883   0.381440286266   0.381931419682   0.382282528648   0.382493309277   
      0.392590837135   0.392524331338   0.392324853509   0.391992526309   0.391527567527   
      0.390930310585   0.39020123418   0.389341001908   0.388350512889   0.387230964414   
      0.385983927594   0.384611436651   0.383116092047   0.381501176825   0.379770784458   
      0.377929955128   0.375984815703   0.373942716866   0.371812359078   0.36960389755   
      0.367329015415   0.365000954221   0.362634491903   0.360245860708   0.357852601154   
      0.355473352661   0.353127586641   0.35083529283   0.348616633873   0.346491585881   
      0.344479583608   0.342599187671   0.340867788313   0.339301355817   0.337914242642   
      0.336719037297   0.335726465557   0.334945331306   0.334382487337   0.33404282593   
      0.333929279807   0.33404282593   0.334382487337   0.334945331306   0.335726465557   
      0.336719037297   0.337914242642   0.339301355817   0.340867788313   0.342599187671   
      0.344479583608   0.346491585881   0.348616633873   0.35083529283   0.353127586641   
      0.355473352661   0.357852601154   0.360245860708   0.362634491903   0.365000954221   
      0.367329015415   0.36960389755   0.371812359078   0.373942716866   0.375984815703   
      0.377929955128   0.379770784458   0.381501176825   0.383116092047   0.384611436651   
      0.385983927594   0.387230964414   0.388350512889   0.389341001908   0.39020123418   
      0.390930310585   0.391527567527   0.391992526309   0.392324853509   0.392524331338   
      0.406379331752   0.406318628197   0.406136537658   0.405833123882   0.405408504455   
      0.404862868261   0.404196500788   0.403409818098   0.402503410441   0.401478096595   
      0.400334989978   0.399075577433   0.397701811268   0.39621621452   0.39462199862   
      0.39292319149   0.391124772734   0.389232810978   0.387254596724   0.385198762495   
      0.383075380742   0.380896029305   0.378673814371   0.376423342062   0.374160632139   
      0.371902970702   0.369668702938   0.367476971504   0.365347410425   0.36329980791   
      0.361353753692   0.359528287115   0.357841561162   0.356310535129   0.35495070512   
      0.353775877513   0.352797986654   0.352026954589   0.351470588313   0.351134508628   
      0.351022104618   0.351134508628   0.351470588313   0.352026954589   0.352797986654   
      0.353775877513   0.35495070512   0.356310535129   0.357841561162   0.359528287115   
      0.361353753692   0.36329980791   0.365347410425   0.367476971504   0.369668702938   
      0.371902970702   0.374160632139   0.376423342062   0.378673814371   0.380896029305   
      0.383075380742   0.385198762495   0.387254596724   0.389232810978   0.391124772734   
      0.39292319149   0.39462199862   0.39621621452   0.397701811268   0.399075577433   
      0.400334989978   0.401478096595   0.402503410441   0.403409818098   0.404196500788   
      0.404862868261   0.405408504455   0.405833123882   0.406136537658   0.406318628197   
      0.423843295075   0.423790667339   0.423632786119   0.423369660056   0.423001312602   