<?xml version="1.0"?>
<VTKFile type="ImageData" version="0.1" byte_order="LittleEndian">
  <ImageData WholeExtent="0 79 0 19 0 19" Origin="0 0 0" Spacing="1 1 1">
  <Piece Extent="0 79 0 19 0 19">
    <PointData Scalars="density">
       <DataArray type="Float32" Name="bluedensity" NumberOfComponents="1" format="ascii">
      0   0   0   0   0   
      0   0   0   0   0   
      0   0   0   0   0   
      0   0   0   0   0   
      0   0   0   0   0   
      0   0   0   0   0   
      0   0   0   0   0   
      0   0   0   0   0   
      0   0   0   0   0   
      0   0   0   0   0   
      0   0   0   0   0   
      0   0   0   0   0   
      0   0   0   0   0   
      0   0   0   0   0   
      0   0   0   0   0   
      0   0   0   0   0   
      0   0   0   0   0   
      0   0   0   0   0   
      0   0   0   0   0   
      0   0   0   0   0   
      0   0   0   0   0   
      0   0   0   0   0   
      0   0   0   0   0   
      0   0   0   0   0   
      0   0   0   0   0   
      0   0   0   0   0   
      0   0   0   0   0   
      0   0   0   0   0   
      0   0   0   0   0   
      0   0   0   0   0   
      0   0   0   0   0   
      0   0   0   0   0   
      0   0   0   0   0   
      0   0   0   0   0   
      0   0   0   0   0   
      0   0   0   0   0   
      0   0   0   0   0   
      0   0   0   0   0   
      0   0   0   0   0   
      0   0   0   0   0   
      0   0   0   0   0   
      0   0   0   0   0   
      0   0   0   0   0   
      0   0   0   0   0   
      0   0   0   0   0   
      0   0   0   0   0   
      0   0   0   0   0   
      0   0   0   0   0   
      0   0   0   0   0   
      0   0   0   0   0   
      0   0   0   0   0   
      0   0   0   0   0   
      0   0   0   0   0   
      0   0   0   0   0   
      0   0   0   0   0   
      0   0   0   0   0   
      0   0   0   0   0   
      0   0   0   0   0   
      0   0   0   0   0   
      0   0   0   0   0   
      0   0   0   0   0   
      0   0   0   0   0   
      0   0   0   0   0   
      0   0   0   0   0   
      0   0   0   0   0   
      0   0   0   0   0   
      0   0   0   0   0   
      0   0   0   0   0   
      0   0   0   0   0   
      0   0   0   0   0   
      0   0   0   0   0   
      0   0   0   0   0   
      0   0   0   0   0   
      0   0   0   0   0   
      0   0   0   0   0   
      0   0   0   0   0   
      0   0   0   0   0   
      0   0   0   0   0   
      0   0   0   0   0   
      0   0   0   0   0   
      0   0   0   0   0   
      0   0   0   0   0   
      0   0   0   0   0   
      0   0   0   0   0   
      0   0   0   0   0   
      0   0   0   0   0   
      0   0   0   0   0   
      0   0   0   0   0   
      0   0   0   0   0   
      0   0   0   0   0   
      0   0   0   0   0   
      0   0   0   0   0   
      0   0   0   0   0   
      0   0   0   0   0   
      0   0   0   0   0   
      0   0   0   0   0   
      0   0   0   0   0   
      0   0   0   0   0   
      0   0   0   0   0   
      0   0   0   0   0   
      0   0   0   0   0   
      0   0   0   0   0   
      0   0   0   0   0   
      0   0   0   0   0   
      0   0   0   0   0   
      0   0   0   0   0   
      0   0   0   0   0   
      0   0   0   0   0   
      0   0   0   0   0   
      0   0   0   0   0   
      0   0   0   0   0   
      0   0   0   0   0   
      0   0   0   0   0   
      0   0   0   0   0   
      0   0   0   0   0   
      0   0   0   0   0   
      0   0   0   0   0   
      0   0   0   0   0   
      0   0   0   0   0   
      0   0   0   0   0   
      0   0   0   0   0   
      0   0   0   0   0   
      0   0   0   0   0   
      0   0   0   0   0   
      0   0   0   0   0   
      0   0   0   0   0   
      0   0   0   0   0   
      0   0   0   0   0   
      0   0   0   0   0   
      0   0   0   0   0   
      0   0   0   0   0   
      0   0   0   0   0   
      0   0   0   0   0   
      0   0   0   0   0   
      0   0   0   0   0   
      0   0   0   0   0   
      0   0   0   0   0   
      0   0   0   0   0   
      0   0   0   0   0   
      0   0   0   0   0   
      0   0   0   0   0   
      0   0   0   0   0   
      0   0   0   0   0   
      0   0   0   0   0   
      0   0   0   0   0   
      0   0   0   0   0   
      0   0   0   0   0   
      0   0   0   0   0   
      0   0   0   0   0   
      0   0   0   0   0   
      0   0   0   0   0   
      0   0   0   0   0   
      0   0   0   0   0   
      0   0   0   0   0   
      0   0   0   0   0   
      0   0   0   0   0   
      0   0   0   0   0   
      0   0   0   0   0   
      0   0   0   0   0   
      0   0   0   0   0   
      0   0   0   0   0   
      0   0   0   0   0   
      0   0   0   0   0   
      0   0   0   0   0   
      0   0   0   0   0   
      0   0   0   0   0   
      0   0   0   0   0   
      0   0   0   0   0   
      0   0   0   0   0   
      0   0   0   0   0   
      0   0   0   0   0   
      0   0   0   0   0   
      0   0   0   0   0   
      0   0   0   0   0   
      0   0   0   0   0   
      0   0   0   0   0   
      0   0   0   0   0   
      0   0   0   0   0   
      0   0   0   0   0   
      0   0   0   0   0   
      0   0   0   0   0   
      0   0   0   0   0   
      0   0   0   0   0   
      0   0   0   0   0   
      0   0   0   0   0   
      0   0   0   0   0   
      0   0   0   0   0   
      0   0   0   0   0   
      0   0   0   0   0   
      0   0   0   0   0   
      0   0   0   0   0   
      0   0   0   0   0   
      0   0   0   0   0   
      0   0   0   0   0   
      0   0   0   0   0   
      0   0   0   0   0   
      0   0   0   0   0   
      0   0   0   0   0   
      0   0   0   0   0   
      0   0   0   0   0   
      0   0   0   0   0   
      0   0   0   0   0   
      0   0   0   0   0   
      0   0   0   0   0   
      0   0   0   0   0   
      0   0   0   0   0   
      0   0   0   0   0   
      0   0   0   0   0   
      0   0   0   0   0   
      0   0   0   0   0   
      0   0   0   0   0   
      0   0   0   0   0   
      0   0   0   0   0   
      0   0   0   0   0   
      0   0   0   0   0   
      0   0   0   0   0   
      0   0   0   0   0   
      0   0   0   0   0   
      0   0   0   0   0   
      0   0   0   0   0   
      0   0   0   0   0   
      0   0   0   0   0   
      0   0   0   0   0   
      0   0   0   0   0   
      0   0   0   0   0   
      0   0   0   0   0   
      0   0   0   0   0   
      0   0   0   0   0   
      0   0   0   0   0   
      0   0   0   0   0   
      0   0   0   0   0   
      0   0   0   0   0   
      0   0   0   0   0   
      0   0   0   0   0   
      0   0   0   0   0   
      0   0   0   0   0   
      0   0   0   0   0   
      0   0   0   0   0   
      0   0   0   0   0   
      0   0   0   0   0   
      0   0   0   0   0   
      0   0   0   0   0   
      0   0   0   0   0   
      0   0   0   0   0   
      0   0   0   0   0   
      0   0   0   0   0   
      0   0   0   0   0   
      0   0   0   0   0   
      0   0   0   0   0   
      0   0   0   0   0   
      0   0   0   0   0   
      0   0   0   0   0   
      0   0   0   0   0   
      0   0   0   0   0   
      0   0   0   0   0   
      0   0   0   0   0   
      0   0   0   0   0   
      0   0   0   0   0   
      0   0   0   0   0   
      0   0   0   0   0   
      0   0   0   0   0   
      0   0   0   0   0   
      0   0   0   0   0   
      0   0   0   0   0   
      0   0   0   0   0   
      0   0   0   0   0   
      0   0   0   0   0   
      0   0   0   0   0   
      0   0   0   0   0   
      0   0   0   0   0   
      0   0   0   0   0   
      0   0   0   0   0   
      0   0   0   0   0   
      0   0   0   0   0   
      0   0   0   0   0   
      0   0   0   0   0   
      0   0   0   0   0   
      0   0   0   0   0   
      0   0   0   0   0   
      0   0   0   0   0   
      0   0   0   0   0   
      0   0   0   0   0   
      0   0   0   0   0   
      0   0   0   0   0   
      0   0   0   0   0   
      0   0   0   0   0   
      0   0   0   0   0   
      0   0   0   0   0   
      0   0   0   0   0   
      0   0   0   0   0   
      0   0   0   0   0   
      0   0   0   0   0   
      0   0   0   0   0   
      0   0   0   0   0   
      0   0   0   0   0   
      0   0   0   0   0   
      0   0   0   0   0   
      0   0   0   0   0   
      0   0   0   0   0   
      0   0   0   0   0   
      0   0   0   0   0   
      0   0   0   0   0   
      0   0   0   0   0   
      0   0   0   0   0   
      0   0   0   0   0   
      0   0   0   0   0   
      0   0   0   0   0   
      0   0   0   0   0   
      0   0   0   0   0   
      0   0   0   0   0   
      0   0   0   0   0   
      0   0   0   0   0   
      0   0   0   0   0   
      0   0   0   0   0   
      0   0   0   0   0   
      0   0   0   0   0   
      0   0   0   0   0   
      0   0   0   0   0   
      0   0   0   0   0   
      0   0   0   0   0   
      0   0   0   0   0   
      0   0   0   0   0   
      0   0   0   0   0   
      0   0   0   0   0   
      0   0   0   0   0   
      0   0   0   0   0   
      0   0   0   0   0   
      0   0   0   0   0   
      0   0   0   0   0   
      0   0   0   0   0   
      0   0   0   0   0   
      0   0   0   0   0   
      0   0   0   0   0   
      0   0   0   0   0   
      0   0   0   0   0   
      0   0   0   0   0   
      0.580811566701   0.580782206001   0.580694087434   0.580547101873   0.580341068416   
      0.580075736103   0.579750786847   0.579365840153   0.578920460402   0.578414167759   
      0.577846454019   0.577216805036   0.576524731666   0.575769811435   0.574951743278   
      0.574070417707   0.573126004491   0.572119059283   0.571050649607   0.569922499033   
      0.568737146364   0.567498114237   0.566210078902   0.564879030402   0.563512410248   
      0.562119212404   0.560710033302   0.559297057941   0.557893971986   0.556515793995   
      0.555178627132   0.553899335404   0.552695155002   0.551583256143   0.550580274395   
      0.549701832578   0.548962074919   0.548373234248   0.547945251019   0.547685460136   
      0.547598358181   0.547685460136   0.547945251019   0.548373234248   0.548962074919   
      0.549701832578   0.550580274395   0.551583256143   0.552695155002   0.553899335404   
      0.555178627132   0.556515793995   0.557893971986   0.559297057941   0.560710033302   
      0.562119212404   0.563512410248   0.564879030402   0.566210078902   0.567498114237   
      0.568737146364   0.569922499033   0.571050649607   0.572119059283   0.573126004491   
      0.574070417707   0.574951743278   0.575769811435   0.576524731666   0.577216805036   
      0.577846454019   0.578414167759   0.578920460402   0.579365840153   0.579750786847   
      0.580075736103   0.580341068416   0.580547101873   0.580694087434   0.580782206001   
      0.472405165584   0.472364880534   0.472243962439   0.472042223051   0.471759350704   
      0.471394913853   0.470948366903   0.47041905923   0.469806248682   0.469109121159   
      0.468326818348   0.467458476029   0.466503275809   0.465460513362   0.464329686364   
      0.463110605072   0.461803527832   0.460409322622   0.458929653836   0.457367191049   
      0.455725833332   0.454010939229   0.452229548931   0.450390582128   0.448504992897   
      0.446585862506   0.444648412427   0.442709923451   0.440789552374   0.438908044744   
      0.437087349883   0.435350151825   0.433719336013   0.43221741593   0.430865945776   
      0.429684945021   0.428692358356   0.427903570999   0.427330995005   0.426983738033   
      0.426867362246   0.426983738033   0.427330995005   0.427903570999   0.428692358356   
      0.429684945021   0.430865945776   0.43221741593   0.433719336013   0.435350151825   
      0.437087349883   0.438908044744   0.440789552374   0.442709923451   0.444648412427   
      0.446585862506   0.448504992897   0.450390582128   0.452229548931   0.454010939229   
      0.455725833332   0.457367191049   0.458929653836   0.460409322622   0.461803527832   
      0.463110605072   0.464329686364   0.465460513362   0.466503275809   0.467458476029   
      0.468326818348   0.469109121159   0.469806248682   0.47041905923   0.470948366903   
      0.471394913853   0.471759350704   0.472042223051   0.472243962439   0.472364880534   
      0.451180454271   0.451127929977   0.450970279755   0.450707272765   0.450338528388   
      0.449863522998   0.449281600696   0.448591989311   0.447793823419   0.446886176622   
      0.445868105832   0.444738710744   0.443497212073   0.442143052267   0.440676022256   
      0.43909641715   0.437405222474   0.435604330509   0.433696783357   0.431687035709   
      0.429581225999   0.427387440265   0.425115949088   0.422779395265   0.420392909095   
      0.417974129983   0.415543117696   0.413122143914   0.410735363932   0.408408378335   
      0.406167703769   0.404040179243   0.402052338635   0.400229780795   0.398596566083   
      0.397174662968   0.395983461577   0.395039364134   0.39435545595   0.393941256008   
      0.393802543502   0.393941256008   0.39435545595   0.395039364134   0.395983461577   
      0.397174662968   0.398596566083   0.400229780795   0.402052338635   0.404040179243   
      0.406167703769   0.408408378335   0.410735363932   0.413122143914   0.415543117696   
      0.417974129983   0.420392909095   0.422779395265   0.425115949088   0.427387440265   
      0.429581225999   0.431687035709   0.433696783357   0.435604330509   0.437405222474   
      0.43909641715   0.440676022256   0.442143052267   0.443497212073   0.444738710744   
      0.445868105832   0.446886176622   0.447793823419   0.448591989311   0.449281600696   
      0.449863522998   0.450338528388   0.450707272765   0.450970279755   0.451127929977   
      0.430322031682   0.430256623707   0.430060320369   0.429732885422   0.429273931983   
      0.428682933669   0.427959241853   0.427102110807   0.426110733025   0.424984287609   
      0.423722005141   0.422323252921   0.420787644699   0.419115178907   0.417306408814   
      0.415362646649   0.413286201554   0.411080647964   0.408751116853   0.406304597297   
      0.403750230545   0.401099574017   0.398366809149   0.395568866014   0.392725439801   
      0.389858880107   0.386993943348   0.384157410439   0.381377584718   0.378683696725   
      0.376105251213   0.373671355931   0.371410070961   0.369347811885   0.367508831146   
      0.365914791244   0.364584432757   0.363533331098   0.362773729491   0.36231443234   
      0.362160742984   0.36231443234   0.362773729491   0.363533331098   0.364584432757   
      0.365914791244   0.367508831146   0.369347811885   0.371410070961   0.373671355931   
      0.376105251213   0.378683696725   0.381377584718   0.384157410439   0.386993943348   
      0.389858880107   0.392725439801   0.395568866014   0.398366809149   0.401099574017   
      0.403750230545   0.406304597297   0.408751116853   0.411080647964   0.413286201554   
      0.415362646649   0.417306408814   0.419115178907   0.420787644699   0.422323252921   
      0.423722005141   0.424984287609   0.426110733025   0.427102110807   0.427959241853   
      0.428682933669   0.429273931983   0.429732885422   0.430060320369   0.430256623707   
      0.414005946469   0.413930077548   0.413702402578   0.413322719789   0.41279070265   
      0.412105915552   0.411267837869   0.410275898556   0.409129524082   0.407828203139   
      0.406371572099   0.404759525536   0.402992356169   0.40107092806   0.398996885652   
      0.396772899071   0.394402942744   0.391892599964   0.389249380544   0.386483032727   
      0.383605824801   0.380632767524   0.377581746693   0.374473537247   0.37133167675   
      0.368182187043   0.365053147138   0.36197413616   0.358975579683   0.356088043582   
      0.353341524492   0.350764784256   0.348384767849   0.346226131768   0.344310895244   
      0.342658212195   0.341284249778   0.340202150929   0.339422053965   0.338951141903   
      0.338793697066   0.338951141903   0.339422053965   0.340202150929   0.341284249778   
      0.342658212195   0.344310895244   0.346226131768   0.348384767849   0.350764784256   
      0.353341524492   0.356088043582   0.358975579683   0.36197413616   0.365053147138   
      0.368182187043   0.37133167675   0.374473537247   0.377581746693   0.380632767524   
      0.383605824801   0.386483032727   0.389249380544   0.391892599964   0.394402942744   
      0.396772899071   0.398996885652   0.40107092806   0.402992356169   0.404759525536   
      0.406371572099   0.407828203139   0.409129524082   0.410275898556   0.411267837869   
      0.412105915552   0.41279070265   0.413322719789   0.413702402578   0.413930077548   
      0.401064919652   0.400981373543   0.400730683424   0.400312697563   0.399727175562   
      0.398973808344   0.39805224863   0.396962154453   0.395703248928   0.394275400187   
      0.392678725829   0.390913726483   0.388981452718   0.386883708617   0.384623293306   
      0.382204278641   0.379632316817   0.376914965998   0.37406201561   0.371085786297   
      0.368001374058   0.364826804973   0.361583067821   0.35829399783   0.354985996032   
      0.351687584582   0.348428816676   0.345240577534   0.342153826889   0.339198840727   
      0.336404509229   0.333797739053   0.331402993238   0.32924198386   0.327333514521   
      0.325693454355   0.324334814395   0.323267891359   0.322500442948   0.322037861589   
      0.321883319061   0.322037861589   0.322500442948   0.323267891359   0.324334814395   
      0.325693454355   0.327333514521   0.32924198386   0.331402993238   0.333797739053   
      0.336404509229   0.339198840727   0.342153826889   0.345240577534   0.348428816676   
      0.351687584582   0.354985996032   0.35829399783   0.361583067821   0.364826804973   
      0.368001374058   0.371085786297   0.37406201561   0.376914965998   0.379632316817   
      0.382204278641   0.384623293306   0.386883708617   0.388981452718   0.390913726483   
      0.392678725829   0.394275400187   0.395703248928   0.396962154453   0.39805224863   
      0.398973808344   0.399727175562   0.400312697563   0.400730683424   0.400981373543   
      0.39160315739   0.391514521066   0.391248575641   0.39080521611   0.390184282377   
      0.389385583032   0.388408931497   0.387254197336   0.385921376353   0.384410683676   
      0.382722674442   0.380858396736   0.378819580743   0.376608866637   0.374230071046   
      0.371688487945   0.368991214432   0.366147485255   0.36316899276   0.360070162191   
      0.356868347417   0.353583910852   0.350240155169   0.346863084183   0.343480985855   
      0.340123850048   0.336822654445   0.333608570077   0.330512149642   0.327562564452   
      0.324786948978   0.322209896879   0.319853132158   0.31773535764   0.315872263751   
      0.314276666321   0.312958733791   0.311926261776   0.31118495519   0.310738683626   
      0.310589682912   0.310738683626   0.31118495519   0.311926261776   0.312958733791   
      0.314276666321   0.315872263751   0.31773535764   0.319853132158   0.322209896879   
      0.324786948978   0.327562564452   0.330512149642   0.333608570077   0.336822654445   
      0.340123850048   0.343480985855   0.346863084183   0.350240155169   0.353583910852   
      0.356868347417   0.360070162191   0.36316899276   0.366147485255   0.368991214432   
      0.371688487945   0.374230071046   0.376608866637   0.378819580743   0.380858396736   
      0.382722674442   0.384410683676   0.385921376353   0.387254197336   0.388408931497   
      0.389385583032   0.390184282377   0.39080521611   0.391248575641   0.391514521066   
      0.385470643822   0.385378972132   0.385103931674   0.384645451188   0.384003428693   
      0.383177758211   0.382168370251   0.38097528911   0.379598710796   0.378039105996   
      0.376297352848   0.374374904052   0.372273992012   0.369997873735   0.367551114051   
      0.364939901045   0.362172381514   0.35925899703   0.356212793648   0.353049671684   
      0.349788537935   0.346451323106   0.343062833458   0.339650418564   0.33624345566   
      0.332872673175   0.329569357883   0.326364507428   0.323287998999   0.320367843582   
      0.317629583536   0.315095871781   0.312786247441   0.310717099822   0.308901793672   
      0.307350916049   0.306072599267   0.305072874675   0.304356016578   0.303924842834   
      0.30378094674   0.303924842834   0.304356016578   0.305072874675   0.306072599267   
      0.307350916049   0.308901793672   0.310717099822   0.312786247441   0.315095871781   
      0.317629583536   0.320367843582   0.323287998999   0.326364507428   0.329569357883   
      0.332872673175   0.33624345566   0.339650418564   0.343062833458   0.346451323106   
      0.349788537935   0.353049671684   0.356212793648   0.35925899703   0.362172381514   
      0.364939901045   0.367551114051   0.369997873735   0.372273992012   0.374374904052   
      0.376297352848   0.378039105996   0.379598710796   0.38097528911   0.382168370251   
      0.383177758211   0.384003428693   0.384645451188   0.385103931674   0.385378972132   
      0.382472224279   0.382379145643   0.382099890037   0.38163440358   0.380982614291   
      0.380144460443   0.37911993344   0.377909138391   0.376512376299   0.374930252375   
      0.373163815277   0.37121473175   0.36908550012   0.366779703924   0.364302303473   
      0.361659958137   0.358861365689   0.355917597522   0.352842400889   0.349652432821   
      0.346367386916   0.343009975528   0.339605737597   0.336182656788   0.332770594836   
      0.32940056815   0.326103917885   0.322911440311   0.319852551638   0.316954557752   
      0.314242085149   0.311736707654   0.309456778727   0.307417455671   0.305630883631   
      0.304106495724   0.302851381288   0.301870675907   0.301167932658   0.300745442001   
      0.300604476188   0.300745442001   0.301167932658   0.301870675907   0.302851381288   
      0.304106495724   0.305630883631   0.307417455671   0.309456778727   0.311736707654   
      0.314242085149   0.316954557752   0.319852551638   0.322911440311   0.326103917885   
      0.32940056815   0.332770594836   0.336182656788   0.339605737597   0.343009975528   
      0.346367386916   0.349652432821   0.352842400889   0.355917597522   0.358861365689   
      0.361659958137   0.364302303473   0.366779703924   0.36908550012   0.37121473175   
      0.373163815277   0.374930252375   0.376512376299   0.377909138391   0.37911993344   
      0.380144460443   0.380982614291   0.38163440358   0.382099890037   0.382379145643   
      0.382472224279   0.382379145643   0.382099890037   0.38163440358   0.380982614291   
      0.380144460443   0.37911993344   0.377909138391   0.376512376299   0.374930252375   
      0.373163815277   0.37121473175   0.36908550012   0.366779703924   0.364302303473   
      0.361659958137   0.358861365689   0.355917597522   0.352842400889   0.349652432821   
      0.346367386916   0.343009975528   0.339605737597   0.336182656788   0.332770594836   
      0.32940056815   0.326103917885   0.322911440311   0.319852551638   0.316954557752   
      0.314242085149   0.311736707654   0.309456778727   0.307417455671   0.305630883631   
      0.304106495724   0.302851381288   0.301870675907   0.301167932658   0.300745442001   
      0.300604476188   0.300745442001   0.301167932658   0.301870675907   0.302851381288   
      0.304106495724   0.305630883631   0.307417455671   0.309456778727   0.311736707654   
      0.314242085149   0.316954557752   0.319852551638   0.322911440311   0.326103917885   
      0.32940056815   0.332770594836   0.336182656788   0.339605737597   0.343009975528   
      0.346367386916   0.349652432821   0.352842400889   0.355917597522   0.358861365689   
      0.361659958137   0.364302303473   0.366779703924   0.36908550012   0.37121473175   
      0.373163815277   0.374930252375   0.376512376299   0.377909138391   0.37911993344   
      0.380144460443   0.380982614291   0.38163440358   0.382099890037   0.382379145643   
      0.385470643822   0.385378972132   0.385103931674   0.384645451188   0.384003428693   
      0.383177758211   0.382168370251   0.38097528911   0.379598710796   0.378039105996   
      0.376297352848   0.374374904052   0.372273992012   0.369997873735   0.367551114051   
      0.364939901045   0.362172381514   0.35925899703   0.356212793648   0.353049671684   
      0.349788537935   0.346451323106   0.343062833458   0.339650418564   0.33624345566   
      0.332872673175   0.329569357883   0.326364507428   0.323287998999   0.320367843582   
      0.317629583536   0.315095871781   0.312786247441   0.310717099822   0.308901793672   
      0.307350916049   0.306072599267   0.305072874675   0.304356016578   0.303924842834   
      0.30378094674   0.303924842834   0.304356016578   0.305072874675   0.306072599267   
      0.307350916049   0.308901793672   0.310717099822   0.312786247441   0.315095871781   
      0.317629583536   0.320367843582   0.323287998999   0.326364507428   0.329569357883   
      0.332872673175   0.33624345566   0.339650418564   0.343062833458   0.346451323106   
      0.349788537935   0.353049671684   0.356212793648   0.35925899703   0.362172381514   
      0.364939901045   0.367551114051   0.369997873735   0.372273992012   0.374374904052   
      0.376297352848   0.378039105996   0.379598710796   0.38097528911   0.382168370251   
      0.383177758211   0.384003428693   0.384645451188   0.385103931674   0.385378972132   
      0.39160315739   0.391514521066   0.391248575641   0.39080521611   0.390184282377   
      0.389385583032   0.388408931497   0.387254197336   0.385921376353   0.384410683676   
      0.382722674442   0.380858396736   0.378819580743   0.376608866637   0.374230071046   
      0.371688487945   0.368991214432   0.366147485255   0.36316899276   0.360070162191   
      0.356868347417   0.353583910852   0.350240155169   0.346863084183   0.343480985855   
      0.340123850048   0.336822654445   0.333608570077   0.330512149642   0.327562564452   
      0.324786948978   0.322209896879   0.319853132158   0.31773535764   0.315872263751   
      0.314276666321   0.312958733791   0.311926261776   0.31118495519   0.310738683626   
      0.310589682912   0.310738683626   0.31118495519   0.311926261776   0.312958733791   
      0.314276666321   0.315872263751   0.31773535764   0.319853132158   0.322209896879   
      0.324786948978   0.327562564452   0.330512149642   0.333608570077   0.336822654445   
      0.340123850048   0.343480985855   0.346863084183   0.350240155169   0.353583910852   
      0.356868347417   0.360070162191   0.36316899276   0.366147485255   0.368991214432   
      0.371688487945   0.374230071046   0.376608866637   0.378819580743   0.380858396736   
      0.382722674442   0.384410683676   0.385921376353   0.387254197336   0.388408931497   
      0.389385583032   0.390184282377   0.39080521611   0.391248575641   0.391514521066   
      0.401064919652   0.400981373543   0.400730683424   0.400312697563   0.399727175562   
      0.398973808344   0.39805224863   0.396962154453   0.395703248928   0.394275400187   
      0.392678725829   0.390913726483   0.388981452718   0.386883708617   0.384623293306   
      0.382204278641   0.379632316817   0.376914965998   0.37406201561   0.371085786297   
      0.368001374058   0.364826804973   0.361583067821   0.35829399783   0.354985996032   
      0.351687584582   0.348428816676   0.345240577534   0.342153826889   0.339198840727   
      0.336404509229   0.333797739053   0.331402993238   0.32924198386   0.327333514521   
      0.325693454355   0.324334814395   0.323267891359   0.322500442948   0.322037861589   
      0.321883319061   0.322037861589   0.322500442948   0.323267891359   0.324334814395   
      0.325693454355   0.327333514521   0.32924198386   0.331402993238   0.333797739053   
      0.336404509229   0.339198840727   0.342153826889   0.345240577534   0.348428816676   
      0.351687584582   0.354985996032   0.35829399783   0.361583067821   0.364826804973   
      0.368001374058   0.371085786297   0.37406201561   0.376914965998   0.379632316817   
      0.382204278641   0.384623293306   0.386883708617   0.388981452718   0.390913726483   
      0.392678725829   0.394275400187   0.395703248928   0.396962154453   0.39805224863   
      0.398973808344   0.399727175562   0.400312697563   0.400730683424   0.400981373543   
      0.414005946469   0.413930077548   0.413702402578   0.413322719789   0.41279070265   
      0.412105915552   0.411267837869   0.410275898556   0.409129524082   0.407828203139   
      0.406371572099   0.404759525536   0.402992356169   0.40107092806   0.398996885652   
      0.396772899071   0.394402942744   0.391892599964   0.389249380544   0.386483032727   
      0.383605824801   0.380632767524   0.377581746693   0.374473537247   0.37133167675   
      0.368182187043   0.365053147138   0.36197413616   0.358975579683   0.356088043582   
      0.353341524492   0.350764784256   0.348384767849   0.346226131768   0.344310895244   
      0.342658212195   0.341284249778   0.340202150929   0.339422053965   0.338951141903   
      0.338793697066   0.338951141903   0.339422053965   0.340202150929   0.341284249778   
      0.342658212195   0.344310895244   0.346226131768   0.348384767849   0.350764784256   
      0.353341524492   0.356088043582   0.358975579683   0.36197413616   0.365053147138   
      0.368182187043   0.37133167675   0.374473537247   0.377581746693   0.380632767524   
      0.383605824801   0.386483032727   0.389249380544   0.391892599964   0.394402942744   
      0.396772899071   0.398996885652   0.40107092806   0.402992356169   0.404759525536   
      0.406371572099   0.407828203139   0.409129524082   0.410275898556   0.411267837869   
      0.412105915552   0.41279070265   0.413322719789   0.413702402578   0.413930077548   
      0.430322031682   0.430256623707   0.430060320369   0.429732885422   0.429273931983   