<?xml version="1.0"?>
<VTKFile type="ImageData" version="0.1" byte_order="LittleEndian">
  <ImageData WholeExtent="0 79 0 19 0 19" Origin="0 0 0" Spacing="1 1 1">
  <Piece Extent="0 79 0 19 0 19">
    <PointData Scalars="density">
       <DataArray type="Float32" Name="bluedensity" NumberOfComponents="1" format="ascii">
      0   0   0   0   0   
      0   0   0   0   0   
      0   0   0   0   0   
      0   0   0   0   0   
      0   0   0   0   0   
      0   0   0   0   0   
      0   0   0   0   0   
      0   0   0   0   0   
      0   0   0   0   0   
      0   0   0   0   0   
      0   0   0   0   0   
      0   0   0   0   0   
      0   0   0   0   0   
      0   0   0   0   0   
      0   0   0   0   0   
      0   0   0   0   0   
      0   0   0   0   0   
      0   0   0   0   0   
      0   0   0   0   0   
      0   0   0   0   0   
      0   0   0   0   0   
      0   0   0   0   0   
      0   0   0   0   0   
      0   0   0   0   0   
      0   0   0   0   0   
      0   0   0   0   0   
      0   0   0   0   0   
      0   0   0   0   0   
      0   0   0   0   0   
      0   0   0   0   0   
      0   0   0   0   0   
      0   0   0   0   0   
      0   0   0   0   0   
      0   0   0   0   0   
      0   0   0   0   0   
      0   0   0   0   0   
      0   0   0   0   0   
      0   0   0   0   0   
      0   0   0   0   0   
      0   0   0   0   0   
      0   0   0   0   0   
      0   0   0   0   0   
      0   0   0   0   0   
      0   0   0   0   0   
      0   0   0   0   0   
      0   0   0   0   0   
      0   0   0   0   0   
      0   0   0   0   0   
      0   0   0   0   0   
      0   0   0   0   0   
      0   0   0   0   0   
      0   0   0   0   0   
      0   0   0   0   0   
      0   0   0   0   0   
      0   0   0   0   0   
      0   0   0   0   0   
      0   0   0   0   0   
      0   0   0   0   0   
      0   0   0   0   0   
      0   0   0   0   0   
      0   0   0   0   0   
      0   0   0   0   0   
      0   0   0   0   0   
      0   0   0   0   0   
      0   0   0   0   0   
      0   0   0   0   0   
      0   0   0   0   0   
      0   0   0   0   0   
      0   0   0   0   0   
      0   0   0   0   0   
      0   0   0   0   0   
      0   0   0   0   0   
      0   0   0   0   0   
      0   0   0   0   0   
      0   0   0   0   0   
      0   0   0   0   0   
      0   0   0   0   0   
      0   0   0   0   0   
      0   0   0   0   0   
      0   0   0   0   0   
      0   0   0   0   0   
      0   0   0   0   0   
      0   0   0   0   0   
      0   0   0   0   0   
      0   0   0   0   0   
      0   0   0   0   0   
      0   0   0   0   0   
      0   0   0   0   0   
      0   0   0   0   0   
      0   0   0   0   0   
      0   0   0   0   0   
      0   0   0   0   0   
      0   0   0   0   0   
      0   0   0   0   0   
      0   0   0   0   0   
      0   0   0   0   0   
      0   0   0   0   0   
      0   0   0   0   0   
      0   0   0   0   0   
      0   0   0   0   0   
      0   0   0   0   0   
      0   0   0   0   0   
      0   0   0   0   0   
      0   0   0   0   0   
      0   0   0   0   0   
      0   0   0   0   0   
      0   0   0   0   0   
      0   0   0   0   0   
      0   0   0   0   0   
      0   0   0   0   0   
      0   0   0   0   0   
      0   0   0   0   0   
      0   0   0   0   0   
      0   0   0   0   0   
      0   0   0   0   0   
      0   0   0   0   0   
      0   0   0   0   0   
      0   0   0   0   0   
      0   0   0   0   0   
      0   0   0   0   0   
      0   0   0   0   0   
      0   0   0   0   0   
      0   0   0   0   0   
      0   0   0   0   0   
      0   0   0   0   0   
      0   0   0   0   0   
      0   0   0   0   0   
      0   0   0   0   0   
      0   0   0   0   0   
      0   0   0   0   0   
      0   0   0   0   0   
      0   0   0   0   0   
      0   0   0   0   0   
      0   0   0   0   0   
      0   0   0   0   0   
      0   0   0   0   0   
      0   0   0   0   0   
      0   0   0   0   0   
      0   0   0   0   0   
      0   0   0   0   0   
      0   0   0   0   0   
      0   0   0   0   0   
      0   0   0   0   0   
      0   0   0   0   0   
      0   0   0   0   0   
      0   0   0   0   0   
      0   0   0   0   0   
      0   0   0   0   0   
      0   0   0   0   0   
      0   0   0   0   0   
      0   0   0   0   0   
      0   0   0   0   0   
      0   0   0   0   0   
      0   0   0   0   0   
      0   0   0   0   0   
      0   0   0   0   0   
      0   0   0   0   0   
      0   0   0   0   0   
      0   0   0   0   0   
      0   0   0   0   0   
      0   0   0   0   0   
      0   0   0   0   0   
      0   0   0   0   0   
      0   0   0   0   0   
      0   0   0   0   0   
      0   0   0   0   0   
      0   0   0   0   0   
      0   0   0   0   0   
      0   0   0   0   0   
      0   0   0   0   0   
      0   0   0   0   0   
      0   0   0   0   0   
      0   0   0   0   0   
      0   0   0   0   0   
      0   0   0   0   0   
      0   0   0   0   0   
      0   0   0   0   0   
      0   0   0   0   0   
      0   0   0   0   0   
      0   0   0   0   0   
      0   0   0   0   0   
      0   0   0   0   0   
      0   0   0   0   0   
      0   0   0   0   0   
      0   0   0   0   0   
      0   0   0   0   0   
      0   0   0   0   0   
      0   0   0   0   0   
      0   0   0   0   0   
      0   0   0   0   0   
      0   0   0   0   0   
      0   0   0   0   0   
      0   0   0   0   0   
      0   0   0   0   0   
      0   0   0   0   0   
      0   0   0   0   0   
      0   0   0   0   0   
      0   0   0   0   0   
      0   0   0   0   0   
      0   0   0   0   0   
      0   0   0   0   0   
      0   0   0   0   0   
      0   0   0   0   0   
      0   0   0   0   0   
      0   0   0   0   0   
      0   0   0   0   0   
      0   0   0   0   0   
      0   0   0   0   0   
      0   0   0   0   0   
      0   0   0   0   0   
      0   0   0   0   0   
      0   0   0   0   0   
      0   0   0   0   0   
      0   0   0   0   0   
      0   0   0   0   0   
      0   0   0   0   0   
      0   0   0   0   0   
      0   0   0   0   0   
      0   0   0   0   0   
      0   0   0   0   0   
      0   0   0   0   0   
      0   0   0   0   0   
      0   0   0   0   0   
      0   0   0   0   0   
      0   0   0   0   0   
      0   0   0   0   0   
      0   0   0   0   0   
      0   0   0   0   0   
      0   0   0   0   0   
      0   0   0   0   0   
      0   0   0   0   0   
      0   0   0   0   0   
      0   0   0   0   0   
      0   0   0   0   0   
      0   0   0   0   0   
      0   0   0   0   0   
      0   0   0   0   0   
      0   0   0   0   0   
      0   0   0   0   0   
      0   0   0   0   0   
      0   0   0   0   0   
      0   0   0   0   0   
      0   0   0   0   0   
      0   0   0   0   0   
      0   0   0   0   0   
      0   0   0   0   0   
      0   0   0   0   0   
      0   0   0   0   0   
      0   0   0   0   0   
      0   0   0   0   0   
      0   0   0   0   0   
      0   0   0   0   0   
      0   0   0   0   0   
      0   0   0   0   0   
      0   0   0   0   0   
      0   0   0   0   0   
      0   0   0   0   0   
      0   0   0   0   0   
      0   0   0   0   0   
      0   0   0   0   0   
      0   0   0   0   0   
      0   0   0   0   0   
      0   0   0   0   0   
      0   0   0   0   0   
      0   0   0   0   0   
      0   0   0   0   0   
      0   0   0   0   0   
      0   0   0   0   0   
      0   0   0   0   0   
      0   0   0   0   0   
      0   0   0   0   0   
      0   0   0   0   0   
      0   0   0   0   0   
      0   0   0   0   0   
      0   0   0   0   0   
      0   0   0   0   0   
      0   0   0   0   0   
      0   0   0   0   0   
      0   0   0   0   0   
      0   0   0   0   0   
      0   0   0   0   0   
      0   0   0   0   0   
      0   0   0   0   0   
      0   0   0   0   0   
      0   0   0   0   0   
      0   0   0   0   0   
      0   0   0   0   0   
      0   0   0   0   0   
      0   0   0   0   0   
      0   0   0   0   0   
      0   0   0   0   0   
      0   0   0   0   0   
      0   0   0   0   0   
      0   0   0   0   0   
      0   0   0   0   0   
      0   0   0   0   0   
      0   0   0   0   0   
      0   0   0   0   0   
      0   0   0   0   0   
      0   0   0   0   0   
      0   0   0   0   0   
      0   0   0   0   0   
      0   0   0   0   0   
      0   0   0   0   0   
      0   0   0   0   0   
      0   0   0   0   0   
      0   0   0   0   0   
      0   0   0   0   0   
      0   0   0   0   0   
      0   0   0   0   0   
      0   0   0   0   0   
      0   0   0   0   0   
      0   0   0   0   0   
      0   0   0   0   0   
      0   0   0   0   0   
      0   0   0   0   0   
      0   0   0   0   0   
      0   0   0   0   0   
      0   0   0   0   0   
      0   0   0   0   0   
      0   0   0   0   0   
      0   0   0   0   0   
      0   0   0   0   0   
      0   0   0   0   0   
      0   0   0   0   0   
      0   0   0   0   0   
      0   0   0   0   0   
      0   0   0   0   0   
      0   0   0   0   0   
      0   0   0   0   0   
      0   0   0   0   0   
      0   0   0   0   0   
      0   0   0   0   0   
      0   0   0   0   0   
      0   0   0   0   0   
      0   0   0   0   0   
      0.581589674163   0.581558486299   0.581464875363   0.581308699292   0.581089721322   
      0.580807610247   0.580461941353   0.580052198623   0.579577779107   0.579038000645   
      0.578432114521   0.577759325056   0.577018818576   0.576209804666   0.575331572918   
      0.574383568541   0.573365490058   0.572277411644   0.571119931493   0.569894345652   
      0.568602844196   0.567248723366   0.565836603676   0.564372640423   0.562864709932   
      0.561322552897   0.559757855842   0.558184253358   0.556617237574   0.555073966952   
      0.55357297352   0.552133775242   0.550776407449   0.54952089336   0.548386678062   
      0.547392052526   0.546553594392   0.545885650613   0.545399884035   0.545104902162   
      0.545005982192   0.545104902162   0.545399884035   0.545885650613   0.546553594392   
      0.547392052526   0.548386678062   0.54952089336   0.550776407449   0.552133775242   
      0.55357297352   0.555073966952   0.556617237574   0.558184253358   0.559757855842   
      0.561322552897   0.562864709932   0.564372640423   0.565836603676   0.567248723366   
      0.568602844196   0.569894345652   0.571119931493   0.572277411644   0.573365490058   
      0.574383568541   0.575331572918   0.576209804666   0.577018818576   0.577759325056   
      0.578432114521   0.579038000645   0.579577779107   0.580052198623   0.580461941353   
      0.580807610247   0.581089721322   0.581308699292   0.581464875363   0.581558486299   
      0.473585378079   0.473542669858   0.47341446496   0.473200522862   0.472900443397   
      0.47251366826   0.472039484075   0.47147702803   0.470825297549   0.470083165896   
      0.469249406218   0.468322727064   0.467301823063   0.46618544491   0.464972493137   
      0.463662140071   0.462253983786   0.460748236518   0.459145947777   0.457449259162   
      0.455661683777   0.453788398329   0.451836531   0.449815423742   0.447736844431   
      0.445615123362   0.443467190326   0.441312493328   0.439172787674   0.437071793815   
      0.43503473284   0.433087758457   0.431257312252   0.429569434095   0.428049061287   
      0.426719348487   0.425601036446   0.424711891937   0.424066235177   0.42367456541   
      0.423543290764   0.42367456541   0.424066235177   0.424711891937   0.425601036446   
      0.426719348487   0.428049061287   0.429569434095   0.431257312252   0.433087758457   
      0.43503473284   0.437071793815   0.439172787674   0.441312493328   0.443467190326   
      0.445615123362   0.447736844431   0.449815423742   0.451836531   0.453788398329   
      0.455661683777   0.457449259162   0.459145947777   0.460748236518   0.462253983786   
      0.463662140071   0.464972493137   0.46618544491   0.467301823063   0.468322727064   
      0.469249406218   0.470083165896   0.470825297549   0.47147702803   0.472039484075   
      0.47251366826   0.472900443397   0.473200522862   0.47341446496   0.473542669858   
      0.452800147525   0.452744450646   0.452577259627   0.452298274018   0.451906995555   
      0.451402732574   0.450784607594   0.450051569581   0.449202412969   0.448235806144   
      0.447150332807   0.445944550332   0.444617069869   0.443166663381   0.441592402862   
      0.439893836421   0.438071204563   0.436125697498   0.434059750655   0.431877370679   
      0.429584478366   0.427189248739   0.424702422723   0.4221375607   0.419511206764   
      0.416842934748   0.414155253453   0.411473358755   0.408824733197   0.40623860761   
      0.40374531199   0.40137555235   0.399159655113   0.39712682027   0.395304419535   
      0.393717367265   0.39238758183   0.391333545054   0.390569959032   0.390107493788   
      0.389952616576   0.390107493788   0.390569959032   0.391333545054   0.39238758183   
      0.393717367265   0.395304419535   0.39712682027   0.399159655113   0.40137555235   
      0.40374531199   0.40623860761   0.408824733197   0.411473358755   0.414155253453   
      0.416842934748   0.419511206764   0.4221375607   0.424702422723   0.427189248739   
      0.429584478366   0.431877370679   0.434059750655   0.436125697498   0.438071204563   
      0.439893836421   0.441592402862   0.443166663381   0.444617069869   0.445944550332   
      0.447150332807   0.448235806144   0.449202412969   0.450051569581   0.450784607594   
      0.451402732574   0.451906995555   0.452298274018   0.452577259627   0.452744450646   
      0.432410826174   0.43234137886   0.432132929741   0.431785158733   0.431297537459   
      0.430669337854   0.429899646169   0.428987384456   0.427931342325   0.426730222575   
      0.425382705103   0.423887534246   0.422243635265   0.420450265893   0.418507208357   
      0.41641500594   0.414175245515   0.411790883448   0.40926660668   0.40660921401   
      0.403827995055   0.400935077298   0.397945706214   0.394878421505   0.391755095069   
      0.38860080448   0.385443528941   0.382313671677   0.37924343086   0.376266057422   
      0.373415049603   0.370723338664   0.368222517432   0.365942153873   0.363909218067   
      0.362147635198   0.360677962373   0.359517175133   0.358678541721   0.358171559933   
      0.35800193232   0.358171559933   0.358678541721   0.359517175133   0.360677962373   
      0.362147635198   0.363909218067   0.365942153873   0.368222517432   0.370723338664   
      0.373415049603   0.376266057422   0.37924343086   0.382313671677   0.385443528941   
      0.38860080448   0.391755095069   0.394878421505   0.397945706214   0.400935077298   
      0.403827995055   0.40660921401   0.40926660668   0.411790883448   0.414175245515   
      0.41641500594   0.418507208357   0.420450265893   0.422243635265   0.423887534246   
      0.425382705103   0.426730222575   0.427931342325   0.428987384456   0.429899646169   
      0.430669337854   0.431297537459   0.431785158733   0.432132929741   0.43234137886   
      0.416484253858   0.416403564151   0.416161396569   0.415757458017   0.415191267952   
      0.41446217155   0.413569360658   0.412511905193   0.411288798459   0.409899020823   
      0.408341627004   0.406615862949   0.404721318611   0.402658122655   0.400427183924   
      0.398030481973   0.395471404859   0.392755126537   0.389889008688   0.386883003311   
      0.383750023868   0.380506245999   0.377171295568   0.373768284018   0.370323659904   
      0.366866861006   0.363429772022   0.360046015509   0.356750124255   0.35357665783   
      0.35055933155   0.347730221639   0.345119097111   0.342752909687   0.340655451779   
      0.338847172774   0.33734512837   0.336163027885   0.335311340574   0.334797423167   
      0.334625636035   0.334797423167   0.335311340574   0.336163027885   0.33734512837   
      0.338847172774   0.340655451779   0.342752909687   0.345119097111   0.347730221639   
      0.35055933155   0.35357665783   0.356750124255   0.360046015509   0.363429772022   
      0.366866861006   0.370323659904   0.373768284018   0.377171295568   0.380506245999   
      0.383750023868   0.386883003311   0.389889008688   0.392755126537   0.395471404859   
      0.398030481973   0.400427183924   0.402658122655   0.404721318611   0.406615862949   
      0.408341627004   0.409899020823   0.411288798459   0.412511905193   0.413569360658   
      0.41446217155   0.415191267952   0.415757458017   0.416161396569   0.416403564151   
      0.403834935665   0.403745944439   0.403478887621   0.403033518864   0.402409438281   
      0.401606109994   0.400622889787   0.399459066019   0.398113917969   0.396586796733   
      0.394877234658   0.39298508986   0.390910732376   0.388655277639   0.386220870856   
      0.38361102207   0.380830986003   0.377888173133   0.374792569263   0.371557131127   
      0.368198116997   0.364735305927   0.361192059636   0.357595188831   0.353974601735   
      0.350362735465   0.346793797515   0.343302870205   0.339924950276   0.33669400479   
      0.333642120942   0.330798812412   0.328190521655   0.325840331001   0.323767870418   
      0.321989390104   0.320517953612   0.319363702234   0.318534142685   0.318034415914   
      0.317867513287   0.318034415914   0.318534142685   0.319363702234   0.320517953612   
      0.321989390104   0.323767870418   0.325840331001   0.328190521655   0.330798812412   
      0.333642120942   0.33669400479   0.339924950276   0.343302870205   0.346793797515   
      0.350362735465   0.353974601735   0.357595188831   0.361192059636   0.364735305927   
      0.368198116997   0.371557131127   0.374792569263   0.377888173133   0.380830986003   
      0.38361102207   0.386220870856   0.388655277639   0.390910732376   0.39298508986   
      0.394877234658   0.396586796733   0.398113917969   0.399459066019   0.400622889787   
      0.401606109994   0.402409438281   0.403033518864   0.403478887621   0.403745944439   
      0.394570161656   0.394475638454   0.394192000486   0.39371904646   0.39305645404   
      0.392203801332   0.391160600521   0.389926347286   0.388500590687   0.38688302923   
      0.385073639603   0.383072844965   0.38088172927   0.378502302664   0.375937819929   
      0.373193148971   0.370275179216   0.367193250657   0.363959573837   0.360589600856   
      0.357102299518   0.353520279766   0.349869726023   0.346180102586   0.342483621583   
      0.338814491682   0.335207995993   0.331699473328   0.328323292532   0.325111911225   
      0.322095097541   0.319299369266   0.316747674343   0.314459306343   0.312450023119   
      0.310732319961   0.309315800683   0.308207590344   0.307412739272   0.306934577273   
      0.306774987247   0.306934577273   0.307412739272   0.308207590344   0.309315800683   
      0.310732319961   0.312450023119   0.314459306343   0.316747674343   0.319299369266   
      0.322095097541   0.325111911225   0.328323292532   0.331699473328   0.335207995993   
      0.338814491682   0.342483621583   0.346180102586   0.349869726023   0.353520279766   
      0.357102299518   0.360589600856   0.363959573837   0.367193250657   0.370275179216   
      0.373193148971   0.375937819929   0.378502302664   0.38088172927   0.383072844965   
      0.385073639603   0.38688302923   0.388500590687   0.389926347286   0.391160600521   
      0.392203801332   0.39305645404   0.39371904646   0.394192000486   0.394475638454   
      0.388556738659   0.388458904849   0.388165345694   0.387675892389   0.386990278677   
      0.386108165434   0.385029178979   0.38375296709   0.382279277779   0.380608066932   
      0.378739641612   0.37667484603   0.374415296478   0.371963669524   0.369324043979   
      0.366502291236   0.363506500377   0.360347414277   0.357038841811   0.353598000945   
      0.35004574054   0.34640658796   0.342708577637   0.338982833772   0.335262907342   
      0.331583899933   0.327981438656   0.324490590803   0.321144818182   0.317975066295   
      0.315009063707   0.312270876474   0.309780728097   0.307555063667   0.305606812918   
      0.303945793085   0.302579188701   0.301512049669   0.300747758131   0.300288425885   
      0.300135195244   0.300288425885   0.300747758131   0.301512049669   0.302579188701   
      0.303945793085   0.305606812918   0.307555063667   0.309780728097   0.312270876474   
      0.315009063707   0.317975066295   0.321144818182   0.324490590803   0.327981438656   
      0.331583899933   0.335262907342   0.338982833772   0.342708577637   0.34640658796   
      0.35004574054   0.353598000945   0.357038841811   0.360347414277   0.363506500377   
      0.366502291236   0.369324043979   0.371963669524   0.374415296478   0.37667484603   
      0.378739641612   0.380608066932   0.382279277779   0.38375296709   0.385029178979   
      0.386108165434   0.386990278677   0.387675892389   0.388165345694   0.388458904849   
      0.385613985319   0.385514613599   0.38521644614   0.384719330727   0.384023029844   
      0.383127246981   0.382031667555   0.380736018571   0.379240152286   0.377544160166   
      0.375648524068   0.373554311678   0.371263422348   0.36877888714   0.36610522273   
      0.363248832379   0.36021843841   0.357025519984   0.353684718509   0.350214162794   
      0.346635659794   0.342974697413   0.339260215962   0.335524125315   0.331800574172   
      0.328125011843   0.32453311509   0.321059675757   0.317737553522   0.31459678972   
      0.311663954606   0.308961766985   0.306508988981   0.304320566803   0.302407965506   
      0.30077963394   0.299441534554   0.298397679019   0.297650621322   0.297201872164   
      0.297052209838   0.297201872164   0.297650621322   0.298397679019   0.299441534554   
      0.30077963394   0.302407965506   0.304320566803   0.306508988981   0.308961766985   
      0.311663954606   0.31459678972   0.317737553522   0.321059675757   0.32453311509   
      0.328125011843   0.331800574172   0.335524125315   0.339260215962   0.342974697413   
      0.346635659794   0.350214162794   0.353684718509   0.357025519984   0.36021843841   
      0.363248832379   0.36610522273   0.36877888714   0.371263422348   0.373554311678   
      0.375648524068   0.377544160166   0.379240152286   0.380736018571   0.382031667555   
      0.383127246981   0.384023029844   0.384719330727   0.38521644614   0.385514613599   
      0.385613985319   0.385514613599   0.38521644614   0.384719330727   0.384023029844   
      0.383127246981   0.382031667555   0.380736018571   0.379240152286   0.377544160166   
      0.375648524068   0.373554311678   0.371263422348   0.36877888714   0.36610522273   
      0.363248832379   0.36021843841   0.357025519984   0.353684718509   0.350214162794   
      0.346635659794   0.342974697413   0.339260215962   0.335524125315   0.331800574172   
      0.328125011843   0.32453311509   0.321059675757   0.317737553522   0.31459678972   
      0.311663954606   0.308961766985   0.306508988981   0.304320566803   0.302407965506   
      0.30077963394   0.299441534554   0.298397679019   0.297650621322   0.297201872164   
      0.297052209838   0.297201872164   0.297650621322   0.298397679019   0.299441534554   
      0.30077963394   0.302407965506   0.304320566803   0.306508988981   0.308961766985   
      0.311663954606   0.31459678972   0.317737553522   0.321059675757   0.32453311509   
      0.328125011843   0.331800574172   0.335524125315   0.339260215962   0.342974697413   
      0.346635659794   0.350214162794   0.353684718509   0.357025519984   0.36021843841   
      0.363248832379   0.36610522273   0.36877888714   0.371263422348   0.373554311678   
      0.375648524068   0.377544160166   0.379240152286   0.380736018571   0.382031667555   
      0.383127246981   0.384023029844   0.384719330727   0.38521644614   0.385514613599   
      0.388556738659   0.388458904849   0.388165345694   0.387675892389   0.386990278677   
      0.386108165434   0.385029178979   0.38375296709   0.382279277779   0.380608066932   
      0.378739641612   0.37667484603   0.374415296478   0.371963669524   0.369324043979   
      0.366502291236   0.363506500377   0.360347414277   0.357038841811   0.353598000945   
      0.35004574054   0.34640658796   0.342708577637   0.338982833772   0.335262907342   
      0.331583899933   0.327981438656   0.324490590803   0.321144818182   0.317975066295   
      0.315009063707   0.312270876474   0.309780728097   0.307555063667   0.305606812918   
      0.303945793085   0.302579188701   0.301512049669   0.300747758131   0.300288425885   
      0.300135195244   0.300288425885   0.300747758131   0.301512049669   0.302579188701   
      0.303945793085   0.305606812918   0.307555063667   0.309780728097   0.312270876474   
      0.315009063707   0.317975066295   0.321144818182   0.324490590803   0.327981438656   
      0.331583899933   0.335262907342   0.338982833772   0.342708577637   0.34640658796   
      0.35004574054   0.353598000945   0.357038841811   0.360347414277   0.363506500377   
      0.366502291236   0.369324043979   0.371963669524   0.374415296478   0.37667484603   
      0.378739641612   0.380608066932   0.382279277779   0.38375296709   0.385029178979   
      0.386108165434   0.386990278677   0.387675892389   0.388165345694   0.388458904849   
      0.394570161656   0.394475638454   0.394192000486   0.39371904646   0.39305645404   
      0.392203801332   0.391160600521   0.389926347286   0.388500590687   0.38688302923   
      0.385073639603   0.383072844965   0.38088172927   0.378502302664   0.375937819929   
      0.373193148971   0.370275179216   0.367193250657   0.363959573837   0.360589600856   
      0.357102299518   0.353520279766   0.349869726023   0.346180102586   0.342483621583   
      0.338814491682   0.335207995993   0.331699473328   0.328323292532   0.325111911225   
      0.322095097541   0.319299369266   0.316747674343   0.314459306343   0.312450023119   
      0.310732319961   0.309315800683   0.308207590344   0.307412739272   0.306934577273   
      0.306774987247   0.306934577273   0.307412739272   0.308207590344   0.309315800683   
      0.310732319961   0.312450023119   0.314459306343   0.316747674343   0.319299369266   
      0.322095097541   0.325111911225   0.328323292532   0.331699473328   0.335207995993   
      0.338814491682   0.342483621583   0.346180102586   0.349869726023   0.353520279766   
      0.357102299518   0.360589600856   0.363959573837   0.367193250657   0.370275179216   
      0.373193148971   0.375937819929   0.378502302664   0.38088172927   0.383072844965   
      0.385073639603   0.38688302923   0.388500590687   0.389926347286   0.391160600521   
      0.392203801332   0.39305645404   0.39371904646   0.394192000486   0.394475638454   
      0.403834935665   0.403745944439   0.403478887621   0.403033518864   0.402409438281   
      0.401606109994   0.400622889787   0.399459066019   0.398113917969   0.396586796733   
      0.394877234658   0.39298508986   0.390910732376   0.388655277639   0.386220870856   
      0.38361102207   0.380830986003   0.377888173133   0.374792569263   0.371557131127   
      0.368198116997   0.364735305927   0.361192059636   0.357595188831   0.353974601735   
      0.350362735465   0.346793797515   0.343302870205   0.339924950276   0.33669400479   
      0.333642120942   0.330798812412   0.328190521655   0.325840331001   0.323767870418   
      0.321989390104   0.320517953612   0.319363702234   0.318534142685   0.318034415914   
      0.317867513287   0.318034415914   0.318534142685   0.319363702234   0.320517953612   
      0.321989390104   0.323767870418   0.325840331001   0.328190521655   0.330798812412   
      0.333642120942   0.33669400479   0.339924950276   0.343302870205   0.346793797515   
      0.350362735465   0.353974601735   0.357595188831   0.361192059636   0.364735305927   
      0.368198116997   0.371557131127   0.374792569263   0.377888173133   0.380830986003   
      0.38361102207   0.386220870856   0.388655277639   0.390910732376   0.39298508986   
      0.394877234658   0.396586796733   0.398113917969   0.399459066019   0.400622889787   
      0.401606109994   0.402409438281   0.403033518864   0.403478887621   0.403745944439   
      0.416484253858   0.416403564151   0.416161396569   0.415757458017   0.415191267952   
      0.41446217155   0.413569360658   0.412511905193   0.411288798459   0.409899020823   
      0.408341627004   0.406615862949   0.404721318611   0.402658122655   0.400427183924   
      0.398030481973   0.395471404859   0.392755126537   0.389889008688   0.386883003311   
      0.383750023868   0.380506245999   0.377171295568   0.373768284018   0.370323659904   
      0.366866861006   0.363429772022   0.360046015509   0.356750124255   0.35357665783   
      0.35055933155   0.347730221639   0.345119097111   0.342752909687   0.340655451779   
      0.338847172774   0.33734512837   0.336163027885   0.335311340574   0.334797423167   
      0.334625636035   0.334797423167   0.335311340574   0.336163027885   0.33734512837   
      0.338847172774   0.340655451779   0.342752909687   0.345119097111   0.347730221639   
      0.35055933155   0.35357665783   0.356750124255   0.360046015509   0.363429772022   
      0.366866861006   0.370323659904   0.373768284018   0.377171295568   0.380506245999   
      0.383750023868   0.386883003311   0.389889008688   0.392755126537   0.395471404859   
      0.398030481973   0.400427183924   0.402658122655   0.404721318611   0.406615862949   
      0.408341627004   0.409899020823   0.411288798459   0.412511905193   0.413569360658   
      0.41446217155   0.415191267952   0.415757458017   0.416161396569   0.416403564151   
      0.432410826174   0.43234137886   0.432132929741   0.431785158733   0.431297537459   