<?xml version="1.0"?>
<VTKFile type="ImageData" version="0.1" byte_order="LittleEndian">
  <ImageData WholeExtent="0 79 0 19 0 19" Origin="0 0 0" Spacing="1 1 1">
  <Piece Extent="0 79 0 19 0 19">
    <PointData Scalars="density">
       <DataArray type="Float32" Name="bluedensity" NumberOfComponents="1" format="ascii">
      0   0   0   0   0   
      0   0   0   0   0   
      0   0   0   0   0   
      0   0   0   0   0   
      0   0   0   0   0   
      0   0   0   0   0   
      0   0   0   0   0   
      0   0   0   0   0   
      0   0   0   0   0   
      0   0   0   0   0   
      0   0   0   0   0   
      0   0   0   0   0   
      0   0   0   0   0   
      0   0   0   0   0   
      0   0   0   0   0   
      0   0   0   0   0   
      0   0   0   0   0   
      0   0   0   0   0   
      0   0   0   0   0   
      0   0   0   0   0   
      0   0   0   0   0   
      0   0   0   0   0   
      0   0   0   0   0   
      0   0   0   0   0   
      0   0   0   0   0   
      0   0   0   0   0   
      0   0   0   0   0   
      0   0   0   0   0   
      0   0   0   0   0   
      0   0   0   0   0   
      0   0   0   0   0   
      0   0   0   0   0   
      0   0   0   0   0   
      0   0   0   0   0   
      0   0   0   0   0   
      0   0   0   0   0   
      0   0   0   0   0   
      0   0   0   0   0   
      0   0   0   0   0   
      0   0   0   0   0   
      0   0   0   0   0   
      0   0   0   0   0   
      0   0   0   0   0   
      0   0   0   0   0   
      0   0   0   0   0   
      0   0   0   0   0   
      0   0   0   0   0   
      0   0   0   0   0   
      0   0   0   0   0   
      0   0   0   0   0   
      0   0   0   0   0   
      0   0   0   0   0   
      0   0   0   0   0   
      0   0   0   0   0   
      0   0   0   0   0   
      0   0   0   0   0   
      0   0   0   0   0   
      0   0   0   0   0   
      0   0   0   0   0   
      0   0   0   0   0   
      0   0   0   0   0   
      0   0   0   0   0   
      0   0   0   0   0   
      0   0   0   0   0   
      0   0   0   0   0   
      0   0   0   0   0   
      0   0   0   0   0   
      0   0   0   0   0   
      0   0   0   0   0   
      0   0   0   0   0   
      0   0   0   0   0   
      0   0   0   0   0   
      0   0   0   0   0   
      0   0   0   0   0   
      0   0   0   0   0   
      0   0   0   0   0   
      0   0   0   0   0   
      0   0   0   0   0   
      0   0   0   0   0   
      0   0   0   0   0   
      0   0   0   0   0   
      0   0   0   0   0   
      0   0   0   0   0   
      0   0   0   0   0   
      0   0   0   0   0   
      0   0   0   0   0   
      0   0   0   0   0   
      0   0   0   0   0   
      0   0   0   0   0   
      0   0   0   0   0   
      0   0   0   0   0   
      0   0   0   0   0   
      0   0   0   0   0   
      0   0   0   0   0   
      0   0   0   0   0   
      0   0   0   0   0   
      0   0   0   0   0   
      0   0   0   0   0   
      0   0   0   0   0   
      0   0   0   0   0   
      0   0   0   0   0   
      0   0   0   0   0   
      0   0   0   0   0   
      0   0   0   0   0   
      0   0   0   0   0   
      0   0   0   0   0   
      0   0   0   0   0   
      0   0   0   0   0   
      0   0   0   0   0   
      0   0   0   0   0   
      0   0   0   0   0   
      0   0   0   0   0   
      0   0   0   0   0   
      0   0   0   0   0   
      0   0   0   0   0   
      0   0   0   0   0   
      0   0   0   0   0   
      0   0   0   0   0   
      0   0   0   0   0   
      0   0   0   0   0   
      0   0   0   0   0   
      0   0   0   0   0   
      0   0   0   0   0   
      0   0   0   0   0   
      0   0   0   0   0   
      0   0   0   0   0   
      0   0   0   0   0   
      0   0   0   0   0   
      0   0   0   0   0   
      0   0   0   0   0   
      0   0   0   0   0   
      0   0   0   0   0   
      0   0   0   0   0   
      0   0   0   0   0   
      0   0   0   0   0   
      0   0   0   0   0   
      0   0   0   0   0   
      0   0   0   0   0   
      0   0   0   0   0   
      0   0   0   0   0   
      0   0   0   0   0   
      0   0   0   0   0   
      0   0   0   0   0   
      0   0   0   0   0   
      0   0   0   0   0   
      0   0   0   0   0   
      0   0   0   0   0   
      0   0   0   0   0   
      0   0   0   0   0   
      0   0   0   0   0   
      0   0   0   0   0   
      0   0   0   0   0   
      0   0   0   0   0   
      0   0   0   0   0   
      0   0   0   0   0   
      0   0   0   0   0   
      0   0   0   0   0   
      0   0   0   0   0   
      0   0   0   0   0   
      0   0   0   0   0   
      0   0   0   0   0   
      0   0   0   0   0   
      0   0   0   0   0   
      0   0   0   0   0   
      0   0   0   0   0   
      0   0   0   0   0   
      0   0   0   0   0   
      0   0   0   0   0   
      0   0   0   0   0   
      0   0   0   0   0   
      0   0   0   0   0   
      0   0   0   0   0   
      0   0   0   0   0   
      0   0   0   0   0   
      0   0   0   0   0   
      0   0   0   0   0   
      0   0   0   0   0   
      0   0   0   0   0   
      0   0   0   0   0   
      0   0   0   0   0   
      0   0   0   0   0   
      0   0   0   0   0   
      0   0   0   0   0   
      0   0   0   0   0   
      0   0   0   0   0   
      0   0   0   0   0   
      0   0   0   0   0   
      0   0   0   0   0   
      0   0   0   0   0   
      0   0   0   0   0   
      0   0   0   0   0   
      0   0   0   0   0   
      0   0   0   0   0   
      0   0   0   0   0   
      0   0   0   0   0   
      0   0   0   0   0   
      0   0   0   0   0   
      0   0   0   0   0   
      0   0   0   0   0   
      0   0   0   0   0   
      0   0   0   0   0   
      0   0   0   0   0   
      0   0   0   0   0   
      0   0   0   0   0   
      0   0   0   0   0   
      0   0   0   0   0   
      0   0   0   0   0   
      0   0   0   0   0   
      0   0   0   0   0   
      0   0   0   0   0   
      0   0   0   0   0   
      0   0   0   0   0   
      0   0   0   0   0   
      0   0   0   0   0   
      0   0   0   0   0   
      0   0   0   0   0   
      0   0   0   0   0   
      0   0   0   0   0   
      0   0   0   0   0   
      0   0   0   0   0   
      0   0   0   0   0   
      0   0   0   0   0   
      0   0   0   0   0   
      0   0   0   0   0   
      0   0   0   0   0   
      0   0   0   0   0   
      0   0   0   0   0   
      0   0   0   0   0   
      0   0   0   0   0   
      0   0   0   0   0   
      0   0   0   0   0   
      0   0   0   0   0   
      0   0   0   0   0   
      0   0   0   0   0   
      0   0   0   0   0   
      0   0   0   0   0   
      0   0   0   0   0   
      0   0   0   0   0   
      0   0   0   0   0   
      0   0   0   0   0   
      0   0   0   0   0   
      0   0   0   0   0   
      0   0   0   0   0   
      0   0   0   0   0   
      0   0   0   0   0   
      0   0   0   0   0   
      0   0   0   0   0   
      0   0   0   0   0   
      0   0   0   0   0   
      0   0   0   0   0   
      0   0   0   0   0   
      0   0   0   0   0   
      0   0   0   0   0   
      0   0   0   0   0   
      0   0   0   0   0   
      0   0   0   0   0   
      0   0   0   0   0   
      0   0   0   0   0   
      0   0   0   0   0   
      0   0   0   0   0   
      0   0   0   0   0   
      0   0   0   0   0   
      0   0   0   0   0   
      0   0   0   0   0   
      0   0   0   0   0   
      0   0   0   0   0   
      0   0   0   0   0   
      0   0   0   0   0   
      0   0   0   0   0   
      0   0   0   0   0   
      0   0   0   0   0   
      0   0   0   0   0   
      0   0   0   0   0   
      0   0   0   0   0   
      0   0   0   0   0   
      0   0   0   0   0   
      0   0   0   0   0   
      0   0   0   0   0   
      0   0   0   0   0   
      0   0   0   0   0   
      0   0   0   0   0   
      0   0   0   0   0   
      0   0   0   0   0   
      0   0   0   0   0   
      0   0   0   0   0   
      0   0   0   0   0   
      0   0   0   0   0   
      0   0   0   0   0   
      0   0   0   0   0   
      0   0   0   0   0   
      0   0   0   0   0   
      0   0   0   0   0   
      0   0   0   0   0   
      0   0   0   0   0   
      0   0   0   0   0   
      0   0   0   0   0   
      0   0   0   0   0   
      0   0   0   0   0   
      0   0   0   0   0   
      0   0   0   0   0   
      0   0   0   0   0   
      0   0   0   0   0   
      0   0   0   0   0   
      0   0   0   0   0   
      0   0   0   0   0   
      0   0   0   0   0   
      0   0   0   0   0   
      0   0   0   0   0   
      0   0   0   0   0   
      0   0   0   0   0   
      0   0   0   0   0   
      0   0   0   0   0   
      0   0   0   0   0   
      0   0   0   0   0   
      0   0   0   0   0   
      0   0   0   0   0   
      0   0   0   0   0   
      0   0   0   0   0   
      0   0   0   0   0   
      0   0   0   0   0   
      0   0   0   0   0   
      0   0   0   0   0   
      0   0   0   0   0   
      0   0   0   0   0   
      0   0   0   0   0   
      0   0   0   0   0   
      0   0   0   0   0   
      0   0   0   0   0   
      0   0   0   0   0   
      0   0   0   0   0   
      0   0   0   0   0   
      0   0   0   0   0   
      0   0   0   0   0   
      0   0   0   0   0   
      0   0   0   0   0   
      0   0   0   0   0   
      0.571288539975   0.571282103278   0.571262821668   0.57123078064   0.57118612285   
      0.57112904835   0.571059814898   0.570978738306   0.570886192807   0.570782611405   
      0.570668486143   0.570544368263   0.570410868188   0.570268655261   0.570118457177   
      0.569961059043   0.569797301981   0.569628081211   0.569454343536   0.569277084166   
      0.569097342824   0.568916199073   0.56873476684   0.568554188109   0.568375625782   
      0.568200255725   0.568029258048   0.567863807679   0.567705064329   0.567554161973   
      0.567412197968   0.567280222   0.567159225025   0.567050128403   0.566953773438   
      0.566870911525   0.566802195113   0.566748169679   0.566709266894   0.566685799129   
      0.566677955443   0.566685799129   0.566709266894   0.566748169679   0.566802195113   
      0.566870911525   0.566953773438   0.567050128403   0.567159225025   0.567280222   
      0.567412197968   0.567554161973   0.567705064329   0.567863807679   0.568029258048   
      0.568200255725   0.568375625782   0.568554188109   0.56873476684   0.568916199073   
      0.569097342824   0.569277084166   0.569454343536   0.569628081211   0.569797301981   
      0.569961059043   0.570118457177   0.570268655261   0.570410868188   0.570544368263   
      0.570668486143   0.570782611405   0.570886192807   0.570978738306   0.571059814898   
      0.57112904835   0.57118612285   0.57123078064   0.571262821668   0.571282103278   
      0.458630976005   0.458622043902   0.458595287126   0.458550824343   0.458488853577   
      0.458409652551   0.458313579141   0.45820107189   0.458072650552   0.457928916597   
      0.457770553621   0.457598327583   0.457413086787   0.457215761527   0.457007363278   
      0.456788983362   0.456561790961   0.456327030389   0.45608601753   0.455840135327   
      0.455590828275   0.455339595829   0.455087984683   0.454837579914   0.454589994975   
      0.454346860577   0.454109812529   0.453880478636   0.453660464777   0.453451340347   
      0.453254623253   0.453071764689   0.452904133944   0.452753003516   0.4526195348   
      0.452504764636   0.452409592992   0.452334772038   0.452280896855   0.45224839798   
      0.452237535948   0.45224839798   0.452280896855   0.452334772038   0.452409592992   
      0.452504764636   0.4526195348   0.452753003516   0.452904133944   0.453071764689   
      0.453254623253   0.453451340347   0.453660464777   0.453880478636   0.454109812529   
      0.454346860577   0.454589994975   0.454837579914   0.455087984683   0.455339595829   
      0.455590828275   0.455840135327   0.45608601753   0.456327030389   0.456561790961   
      0.456788983362   0.457007363278   0.457215761527   0.457413086787   0.457598327583   
      0.457770553621   0.457928916597   0.458072650552   0.45820107189   0.458313579141   
      0.458409652551   0.458488853577   0.458550824343   0.458595287126   0.458622043902   
      0.432871967348   0.432860457747   0.432825980811   0.432768692214   0.432688851676   
      0.432586823324   0.43246307616   0.432318184576   0.432152828869   0.431967795674   
      0.431763978237   0.431542376431   0.431304096408   0.431050349783   0.430782452213   
      0.430501821269   0.430209973451   0.429908520253   0.429599163136   0.429283687321   
      0.428963954304   0.428641893033   0.428319489695   0.427998776103   0.427681816702   
      0.427370694254   0.427067494287   0.42677428846   0.426493117007   0.426225970472   
      0.425974771002   0.425741353459   0.425527446662   0.425334655084   0.425164441328   
      0.425018109717   0.424896791311   0.424801430655   0.42473277454   0.424691362991   
      0.424677522694   0.424691362991   0.42473277454   0.424801430655   0.424896791311   
      0.425018109717   0.425164441328   0.425334655084   0.425527446662   0.425741353459   
      0.425974771002   0.426225970472   0.426493117007   0.42677428846   0.427067494287   
      0.427370694254   0.427681816702   0.427998776103   0.428319489695   0.428641893033   
      0.428963954304   0.429283687321   0.429599163136   0.429908520253   0.430209973451   
      0.430501821269   0.430782452213   0.431050349783   0.431304096408   0.431542376431   
      0.431763978237   0.431967795674   0.432152828869   0.432318184576   0.43246307616   
      0.432586823324   0.432688851676   0.432768692214   0.432825980811   0.432860457747   
      0.407365534241   0.407351507465   0.407309491927   0.407239682067   0.40714240216   
      0.40701810662   0.406867380344   0.406690939076   0.406489629692   0.406264430336   
      0.406016450295   0.405746929509   0.405457237588   0.405148872197   0.40482345669   
      0.404482736827   0.404128576461   0.403762952032   0.403387945783   0.403005737549   
      0.402618595068   0.402228862728   0.401838948739   0.401451310726   0.401068439791   
      0.40069284313   0.400327025341   0.399973468593   0.399634611873   0.399312829569   
      0.399010409675   0.398729531942   0.398472246314   0.398240452004   0.398035877564   
      0.397860062304   0.397714339413   0.397599821068   0.397517385846   0.397467668665   
      0.397451053446   0.397467668665   0.397517385846   0.397599821068   0.397714339413   
      0.397860062304   0.398035877564   0.398240452004   0.398472246314   0.398729531942   
      0.399010409675   0.399312829569   0.399634611873   0.399973468593   0.400327025341   
      0.40069284313   0.401068439791   0.401451310726   0.401838948739   0.402228862728   
      0.402618595068   0.403005737549   0.403387945783   0.403762952032   0.404128576461   
      0.404482736827   0.40482345669   0.405148872197   0.405457237588   0.405746929509   
      0.406016450295   0.406264430336   0.406489629692   0.406690939076   0.406867380344   
      0.40701810662   0.40714240216   0.407239682067   0.407309491927   0.407351507465   
      0.387389321809   0.387373450292   0.387325910992   0.387246929697   0.387136882838   
      0.386996297624   0.38682585218   0.386626375601   0.386398847859   0.386144399461   
      0.385864310742   0.385560010677   0.385233075067   0.384885223974   0.384518318241   
      0.384134354961   0.383735461753   0.383323889716   0.382902004931   0.382472278431   
      0.382037274557   0.381599637659   0.381162077146   0.380727350905   0.380298247179   
      0.379877565009   0.379468093423   0.379072589553   0.378693755952   0.378334217372   
      0.377996497323   0.377682994749   0.377395961163   0.377137478611   0.376909438797   
      0.376713523735   0.376551188247   0.376423644599   0.376331849546   0.376276494015   
      0.376257995602   0.376276494015   0.376331849546   0.376423644599   0.376551188247   
      0.376713523735   0.376909438797   0.377137478611   0.377395961163   0.377682994749   
      0.377996497323   0.378334217372   0.378693755952   0.379072589553   0.379468093423   
      0.379877565009   0.380298247179   0.380727350905   0.381162077146   0.381599637659   
      0.382037274557   0.382472278431   0.382902004931   0.383323889716   0.383735461753   
      0.384134354961   0.384518318241   0.384885223974   0.385233075067   0.385560010677   
      0.385864310742   0.386144399461   0.386398847859   0.386626375601   0.38682585218   
      0.386996297624   0.387136882838   0.387246929697   0.387325910992   0.387373450292   
      0.37184157771   0.371824494813   0.371773329062   0.371688329273   0.371569910134   
      0.371418652161   0.371235301569   0.371020769987   0.370776133931   0.370502633934   
      0.370201673214   0.369874815759   0.369523783675   0.369150453664   0.368756852491   
      0.368345151279   0.367917658514   0.367476811627   0.367025167054   0.366565388693   
      0.366100234706   0.365632542652   0.365165212968   0.364701190871   0.364243446774   
      0.36379495537   0.363358673575   0.362937517564   0.362534339145   0.362151901792   
      0.361792856633   0.361459718729   0.361154843994   0.360880407082   0.360638380582   
      0.36043051583   0.36025832564   0.36012306921   0.36002573945   0.359967052907   
      0.359947442463   0.359967052907   0.36002573945   0.36012306921   0.36025832564   
      0.36043051583   0.360638380582   0.360880407082   0.361154843994   0.361459718729   
      0.361792856633   0.362151901792   0.362534339145   0.362937517564   0.363358673575   
      0.36379495537   0.364243446774   0.364701190871   0.365165212968   0.365632542652   
      0.366100234706   0.366565388693   0.367025167054   0.367476811627   0.367917658514   
      0.368345151279   0.368756852491   0.369150453664   0.369523783675   0.369874815759   
      0.370201673214   0.370502633934   0.370776133931   0.371020769987   0.371235301569   
      0.371418652161   0.371569910134   0.371688329273   0.371773329062   0.371824494813   
      0.3607019197   0.360684128495   0.360630842956   0.360542327274   0.360419021651   
      0.36026154208   0.360070679976   0.359847401571   0.359592846995   0.359308328928   
      0.358995330718   0.358655503819   0.358290664418   0.357902789113   0.357494009482   
      0.357066605434   0.356622997184   0.35616573577   0.355697492001   0.355221043791   
      0.354739261838   0.354255093667   0.353771546066   0.353291666022   0.352818520275   
      0.352355173657   0.351904666445   0.351469990946   0.351054067608   0.350659720951   
      0.350289655615   0.349946432868   0.349632447884   0.349349908106   0.349100813003   
      0.348886935497   0.348709805319   0.348570694533   0.348470605407   0.348410260817   
      0.348390097293   0.348410260817   0.348470605407   0.348570694533   0.348709805319   
      0.348886935497   0.349100813003   0.349349908106   0.349632447884   0.349946432868   
      0.350289655615   0.350659720951   0.351054067608   0.351469990946   0.351904666445   
      0.352355173657   0.352818520275   0.353291666022   0.353771546066   0.354255093667   
      0.354739261838   0.355221043791   0.355697492001   0.35616573577   0.356622997184   
      0.357066605434   0.357494009482   0.357902789113   0.358290664418   0.358655503819   
      0.358995330718   0.359308328928   0.359592846995   0.359847401571   0.360070679976   
      0.36026154208   0.360419021651   0.360542327274   0.360630842956   0.360684128495   
      0.353595423965   0.353577260953   0.353522863088   0.353432503819   0.353306638691   
      0.353145904996   0.352951121218   0.352723286187   0.352463577869   0.35217335166   
      0.351854138098   0.351507639826   0.351135727699   0.350740435876   0.35032395577   
      0.349888628716   0.349436937247   0.348971494875   0.348495034299   0.348010394003   
      0.347520503213   0.347028365261   0.346537039397   0.34604962118   0.345569221564   
      0.3450989449   0.344641866043   0.344201006844   0.343779312282   0.34337962655   
      0.343004669391   0.342657013   0.342339059786   0.342053021307   0.341800898639   
      0.341584464437   0.341405246926   0.34126451601   0.341163271679   0.341102234845   
      0.341081840728   0.341102234845   0.341163271679   0.34126451601   0.341405246926   
      0.341584464437   0.341800898639   0.342053021307   0.342339059786   0.342657013   
      0.343004669391   0.34337962655   0.343779312282   0.344201006844   0.344641866043   
      0.3450989449   0.345569221564   0.34604962118   0.346537039397   0.347028365261   
      0.347520503213   0.348010394003   0.348495034299   0.348971494875   0.349436937247   
      0.349888628716   0.35032395577   0.350740435876   0.351135727699   0.351507639826   
      0.351854138098   0.35217335166   0.352463577869   0.352723286187   0.352951121218   
      0.353145904996   0.353306638691   0.353432503819   0.353522863088   0.353577260953   
      0.350154579971   0.350136261584   0.350081399039   0.349990270109   0.349863337499   
      0.349701248426   0.349504833965   0.349275108079   0.349013266243   0.348720683558   
      0.348398912242   0.348049678345   0.347674877581   0.347276570121   0.346856974211   
      0.346418458498   0.345963532947   0.345494838247   0.345015133655   0.344527283221   
      0.344034240403   0.343539031104   0.343044735198   0.342554466672   0.342071352525   
      0.341598510633   0.341139026799   0.340695931242   0.340272174813   0.339870605221   
      0.339493943586   0.339144761607   0.338825459649   0.338538246024   0.338285117746   
      0.33806784297   0.337887945364   0.33774669056   0.337645074877   0.337583816415   
      0.337563348622   0.337583816415   0.337645074877   0.33774669056   0.337887945364   
      0.33806784297   0.338285117746   0.338538246024   0.338825459649   0.339144761607   
      0.339493943586   0.339870605221   0.340272174813   0.340695931242   0.341139026799   
      0.341598510633   0.342071352525   0.342554466672   0.343044735198   0.343539031104   
      0.344034240403   0.344527283221   0.345015133655   0.345494838247   0.345963532947   
      0.346418458498   0.346856974211   0.347276570121   0.347674877581   0.348049678345   
      0.348398912242   0.348720683558   0.349013266243   0.349275108079   0.349504833965   
      0.349701248426   0.349863337499   0.349990270109   0.350081399039   0.350136261584   
      0.350154579971   0.350136261584   0.350081399039   0.349990270109   0.349863337499   
      0.349701248426   0.349504833965   0.349275108079   0.349013266243   0.348720683558   
      0.348398912242   0.348049678345   0.347674877581   0.347276570121   0.346856974211   
      0.346418458498   0.345963532947   0.345494838247   0.345015133655   0.344527283221   
      0.344034240403   0.343539031104   0.343044735198   0.342554466672   0.342071352525   
      0.341598510633   0.341139026799   0.340695931242   0.340272174813   0.339870605221   
      0.339493943586   0.339144761607   0.338825459649   0.338538246024   0.338285117746   
      0.33806784297   0.337887945364   0.33774669056   0.337645074877   0.337583816415   
      0.337563348622   0.337583816415   0.337645074877   0.33774669056   0.337887945364   
      0.33806784297   0.338285117746   0.338538246024   0.338825459649   0.339144761607   
      0.339493943586   0.339870605221   0.340272174813   0.340695931242   0.341139026799   
      0.341598510633   0.342071352525   0.342554466672   0.343044735198   0.343539031104   
      0.344034240403   0.344527283221   0.345015133655   0.345494838247   0.345963532947   
      0.346418458498   0.346856974211   0.347276570121   0.347674877581   0.348049678345   
      0.348398912242   0.348720683558   0.349013266243   0.349275108079   0.349504833965   
      0.349701248426   0.349863337499   0.349990270109   0.350081399039   0.350136261584   
      0.353595423965   0.353577260953   0.353522863088   0.353432503819   0.353306638691   
      0.353145904996   0.352951121218   0.352723286187   0.352463577869   0.35217335166   
      0.351854138098   0.351507639826   0.351135727699   0.350740435876   0.35032395577   
      0.349888628716   0.349436937247   0.348971494875   0.348495034299   0.348010394003   
      0.347520503213   0.347028365261   0.346537039397   0.34604962118   0.345569221564   
      0.3450989449   0.344641866043   0.344201006844   0.343779312282   0.34337962655   
      0.343004669391   0.342657013   0.342339059786   0.342053021307   0.341800898639   
      0.341584464437   0.341405246926   0.34126451601   0.341163271679   0.341102234845   
      0.341081840728   0.341102234845   0.341163271679   0.34126451601   0.341405246926   
      0.341584464437   0.341800898639   0.342053021307   0.342339059786   0.342657013   
      0.343004669391   0.34337962655   0.343779312282   0.344201006844   0.344641866043   
      0.3450989449   0.345569221564   0.34604962118   0.346537039397   0.347028365261   
      0.347520503213   0.348010394003   0.348495034299   0.348971494875   0.349436937247   
      0.349888628716   0.35032395577   0.350740435876   0.351135727699   0.351507639826   
      0.351854138098   0.35217335166   0.352463577869   0.352723286187   0.352951121218   
      0.353145904996   0.353306638691   0.353432503819   0.353522863088   0.353577260953   
      0.3607019197   0.360684128495   0.360630842956   0.360542327274   0.360419021651   
      0.36026154208   0.360070679976   0.359847401571   0.359592846995   0.359308328928   
      0.358995330718   0.358655503819   0.358290664418   0.357902789113   0.357494009482   
      0.357066605434   0.356622997184   0.35616573577   0.355697492001   0.355221043791   
      0.354739261838   0.354255093667   0.353771546066   0.353291666022   0.352818520275   
      0.352355173657   0.351904666445   0.351469990946   0.351054067608   0.350659720951   
      0.350289655615   0.349946432868   0.349632447884   0.349349908106   0.349100813003   
      0.348886935497   0.348709805319   0.348570694533   0.348470605407   0.348410260817   
      0.348390097293   0.348410260817   0.348470605407   0.348570694533   0.348709805319   
      0.348886935497   0.349100813003   0.349349908106   0.349632447884   0.349946432868   
      0.350289655615   0.350659720951   0.351054067608   0.351469990946   0.351904666445   
      0.352355173657   0.352818520275   0.353291666022   0.353771546066   0.354255093667   
      0.354739261838   0.355221043791   0.355697492001   0.35616573577   0.356622997184   
      0.357066605434   0.357494009482   0.357902789113   0.358290664418   0.358655503819   
      0.358995330718   0.359308328928   0.359592846995   0.359847401571   0.360070679976   
      0.36026154208   0.360419021651   0.360542327274   0.360630842956   0.360684128495   
      0.37184157771   0.371824494813   0.371773329062   0.371688329273   0.371569910134   
      0.371418652161   0.371235301569   0.371020769987   0.370776133931   0.370502633934   
      0.370201673214   0.369874815759   0.369523783675   0.369150453664   0.368756852491   
      0.368345151279   0.367917658514   0.367476811627   0.367025167054   0.366565388693   
      0.366100234706   0.365632542652   0.365165212968   0.364701190871   0.364243446774   
      0.36379495537   0.363358673575   0.362937517564   0.362534339145   0.362151901792   
      0.361792856633   0.361459718729   0.361154843994   0.360880407082   0.360638380582   
      0.36043051583   0.36025832564   0.36012306921   0.36002573945   0.359967052907   
      0.359947442463   0.359967052907   0.36002573945   0.36012306921   0.36025832564   
      0.36043051583   0.360638380582   0.360880407082   0.361154843994   0.361459718729   
      0.361792856633   0.362151901792   0.362534339145   0.362937517564   0.363358673575   
      0.36379495537   0.364243446774   0.364701190871   0.365165212968   0.365632542652   
      0.366100234706   0.366565388693   0.367025167054   0.367476811627   0.367917658514   
      0.368345151279   0.368756852491   0.369150453664   0.369523783675   0.369874815759   
      0.370201673214   0.370502633934   0.370776133931   0.371020769987   0.371235301569   
      0.371418652161   0.371569910134   0.371688329273   0.371773329062   0.371824494813   
      0.387389321809   0.387373450292   0.387325910992   0.387246929697   0.387136882838   
      0.386996297624   0.38682585218   0.386626375601   0.386398847859   0.386144399461   
      0.385864310742   0.385560010677   0.385233075067   0.384885223974   0.384518318241   
      0.384134354961   0.383735461753   0.383323889716   0.382902004931   0.382472278431   
      0.382037274557   0.381599637659   0.381162077146   0.380727350905   0.380298247179   
      0.379877565009   0.379468093423   0.379072589553   0.378693755952   0.378334217372   
      0.377996497323   0.377682994749   0.377395961163   0.377137478611   0.376909438797   
      0.376713523735   0.376551188247   0.376423644599   0.376331849546   0.376276494015   
      0.376257995602   0.376276494015   0.376331849546   0.376423644599   0.376551188247   
      0.376713523735   0.376909438797   0.377137478611   0.377395961163   0.377682994749   
      0.377996497323   0.378334217372   0.378693755952   0.379072589553   0.379468093423   
      0.379877565009   0.380298247179   0.380727350905   0.381162077146   0.381599637659   
      0.382037274557   0.382472278431   0.382902004931   0.383323889716   0.383735461753   
      0.384134354961   0.384518318241   0.384885223974   0.385233075067   0.385560010677   
      0.385864310742   0.386144399461   0.386398847859   0.386626375601   0.38682585218   
      0.386996297624   0.387136882838   0.387246929697   0.387325910992   0.387373450292   
      0.407365534241   0.407351507465   0.407309491927   0.407239682067   0.40714240216   