<?xml version="1.0"?>
<VTKFile type="ImageData" version="0.1" byte_order="LittleEndian">
  <ImageData WholeExtent="0 79 0 19 0 19" Origin="0 0 0" Spacing="1 1 1">
  <Piece Extent="0 79 0 19 0 19">
    <PointData Scalars="density">
       <DataArray type="Float32" Name="bluedensity" NumberOfComponents="1" format="ascii">
      0   0   0   0   0   
      0   0   0   0   0   
      0   0   0   0   0   
      0   0   0   0   0   
      0   0   0   0   0   
      0   0   0   0   0   
      0   0   0   0   0   
      0   0   0   0   0   
      0   0   0   0   0   
      0   0   0   0   0   
      0   0   0   0   0   
      0   0   0   0   0   
      0   0   0   0   0   
      0   0   0   0   0   
      0   0   0   0   0   
      0   0   0   0   0   
      0   0   0   0   0   
      0   0   0   0   0   
      0   0   0   0   0   
      0   0   0   0   0   
      0   0   0   0   0   
      0   0   0   0   0   
      0   0   0   0   0   
      0   0   0   0   0   
      0   0   0   0   0   
      0   0   0   0   0   
      0   0   0   0   0   
      0   0   0   0   0   
      0   0   0   0   0   
      0   0   0   0   0   
      0   0   0   0   0   
      0   0   0   0   0   
      0   0   0   0   0   
      0   0   0   0   0   
      0   0   0   0   0   
      0   0   0   0   0   
      0   0   0   0   0   
      0   0   0   0   0   
      0   0   0   0   0   
      0   0   0   0   0   
      0   0   0   0   0   
      0   0   0   0   0   
      0   0   0   0   0   
      0   0   0   0   0   
      0   0   0   0   0   
      0   0   0   0   0   
      0   0   0   0   0   
      0   0   0   0   0   
      0   0   0   0   0   
      0   0   0   0   0   
      0   0   0   0   0   
      0   0   0   0   0   
      0   0   0   0   0   
      0   0   0   0   0   
      0   0   0   0   0   
      0   0   0   0   0   
      0   0   0   0   0   
      0   0   0   0   0   
      0   0   0   0   0   
      0   0   0   0   0   
      0   0   0   0   0   
      0   0   0   0   0   
      0   0   0   0   0   
      0   0   0   0   0   
      0   0   0   0   0   
      0   0   0   0   0   
      0   0   0   0   0   
      0   0   0   0   0   
      0   0   0   0   0   
      0   0   0   0   0   
      0   0   0   0   0   
      0   0   0   0   0   
      0   0   0   0   0   
      0   0   0   0   0   
      0   0   0   0   0   
      0   0   0   0   0   
      0   0   0   0   0   
      0   0   0   0   0   
      0   0   0   0   0   
      0   0   0   0   0   
      0   0   0   0   0   
      0   0   0   0   0   
      0   0   0   0   0   
      0   0   0   0   0   
      0   0   0   0   0   
      0   0   0   0   0   
      0   0   0   0   0   
      0   0   0   0   0   
      0   0   0   0   0   
      0   0   0   0   0   
      0   0   0   0   0   
      0   0   0   0   0   
      0   0   0   0   0   
      0   0   0   0   0   
      0   0   0   0   0   
      0   0   0   0   0   
      0   0   0   0   0   
      0   0   0   0   0   
      0   0   0   0   0   
      0   0   0   0   0   
      0   0   0   0   0   
      0   0   0   0   0   
      0   0   0   0   0   
      0   0   0   0   0   
      0   0   0   0   0   
      0   0   0   0   0   
      0   0   0   0   0   
      0   0   0   0   0   
      0   0   0   0   0   
      0   0   0   0   0   
      0   0   0   0   0   
      0   0   0   0   0   
      0   0   0   0   0   
      0   0   0   0   0   
      0   0   0   0   0   
      0   0   0   0   0   
      0   0   0   0   0   
      0   0   0   0   0   
      0   0   0   0   0   
      0   0   0   0   0   
      0   0   0   0   0   
      0   0   0   0   0   
      0   0   0   0   0   
      0   0   0   0   0   
      0   0   0   0   0   
      0   0   0   0   0   
      0   0   0   0   0   
      0   0   0   0   0   
      0   0   0   0   0   
      0   0   0   0   0   
      0   0   0   0   0   
      0   0   0   0   0   
      0   0   0   0   0   
      0   0   0   0   0   
      0   0   0   0   0   
      0   0   0   0   0   
      0   0   0   0   0   
      0   0   0   0   0   
      0   0   0   0   0   
      0   0   0   0   0   
      0   0   0   0   0   
      0   0   0   0   0   
      0   0   0   0   0   
      0   0   0   0   0   
      0   0   0   0   0   
      0   0   0   0   0   
      0   0   0   0   0   
      0   0   0   0   0   
      0   0   0   0   0   
      0   0   0   0   0   
      0   0   0   0   0   
      0   0   0   0   0   
      0   0   0   0   0   
      0   0   0   0   0   
      0   0   0   0   0   
      0   0   0   0   0   
      0   0   0   0   0   
      0   0   0   0   0   
      0   0   0   0   0   
      0   0   0   0   0   
      0   0   0   0   0   
      0   0   0   0   0   
      0   0   0   0   0   
      0   0   0   0   0   
      0   0   0   0   0   
      0   0   0   0   0   
      0   0   0   0   0   
      0   0   0   0   0   
      0   0   0   0   0   
      0   0   0   0   0   
      0   0   0   0   0   
      0   0   0   0   0   
      0   0   0   0   0   
      0   0   0   0   0   
      0   0   0   0   0   
      0   0   0   0   0   
      0   0   0   0   0   
      0   0   0   0   0   
      0   0   0   0   0   
      0   0   0   0   0   
      0   0   0   0   0   
      0   0   0   0   0   
      0   0   0   0   0   
      0   0   0   0   0   
      0   0   0   0   0   
      0   0   0   0   0   
      0   0   0   0   0   
      0   0   0   0   0   
      0   0   0   0   0   
      0   0   0   0   0   
      0   0   0   0   0   
      0   0   0   0   0   
      0   0   0   0   0   
      0   0   0   0   0   
      0   0   0   0   0   
      0   0   0   0   0   
      0   0   0   0   0   
      0   0   0   0   0   
      0   0   0   0   0   
      0   0   0   0   0   
      0   0   0   0   0   
      0   0   0   0   0   
      0   0   0   0   0   
      0   0   0   0   0   
      0   0   0   0   0   
      0   0   0   0   0   
      0   0   0   0   0   
      0   0   0   0   0   
      0   0   0   0   0   
      0   0   0   0   0   
      0   0   0   0   0   
      0   0   0   0   0   
      0   0   0   0   0   
      0   0   0   0   0   
      0   0   0   0   0   
      0   0   0   0   0   
      0   0   0   0   0   
      0   0   0   0   0   
      0   0   0   0   0   
      0   0   0   0   0   
      0   0   0   0   0   
      0   0   0   0   0   
      0   0   0   0   0   
      0   0   0   0   0   
      0   0   0   0   0   
      0   0   0   0   0   
      0   0   0   0   0   
      0   0   0   0   0   
      0   0   0   0   0   
      0   0   0   0   0   
      0   0   0   0   0   
      0   0   0   0   0   
      0   0   0   0   0   
      0   0   0   0   0   
      0   0   0   0   0   
      0   0   0   0   0   
      0   0   0   0   0   
      0   0   0   0   0   
      0   0   0   0   0   
      0   0   0   0   0   
      0   0   0   0   0   
      0   0   0   0   0   
      0   0   0   0   0   
      0   0   0   0   0   
      0   0   0   0   0   
      0   0   0   0   0   
      0   0   0   0   0   
      0   0   0   0   0   
      0   0   0   0   0   
      0   0   0   0   0   
      0   0   0   0   0   
      0   0   0   0   0   
      0   0   0   0   0   
      0   0   0   0   0   
      0   0   0   0   0   
      0   0   0   0   0   
      0   0   0   0   0   
      0   0   0   0   0   
      0   0   0   0   0   
      0   0   0   0   0   
      0   0   0   0   0   
      0   0   0   0   0   
      0   0   0   0   0   
      0   0   0   0   0   
      0   0   0   0   0   
      0   0   0   0   0   
      0   0   0   0   0   
      0   0   0   0   0   
      0   0   0   0   0   
      0   0   0   0   0   
      0   0   0   0   0   
      0   0   0   0   0   
      0   0   0   0   0   
      0   0   0   0   0   
      0   0   0   0   0   
      0   0   0   0   0   
      0   0   0   0   0   
      0   0   0   0   0   
      0   0   0   0   0   
      0   0   0   0   0   
      0   0   0   0   0   
      0   0   0   0   0   
      0   0   0   0   0   
      0   0   0   0   0   
      0   0   0   0   0   
      0   0   0   0   0   
      0   0   0   0   0   
      0   0   0   0   0   
      0   0   0   0   0   
      0   0   0   0   0   
      0   0   0   0   0   
      0   0   0   0   0   
      0   0   0   0   0   
      0   0   0   0   0   
      0   0   0   0   0   
      0   0   0   0   0   
      0   0   0   0   0   
      0   0   0   0   0   
      0   0   0   0   0   
      0   0   0   0   0   
      0   0   0   0   0   
      0   0   0   0   0   
      0   0   0   0   0   
      0   0   0   0   0   
      0   0   0   0   0   
      0   0   0   0   0   
      0   0   0   0   0   
      0   0   0   0   0   
      0   0   0   0   0   
      0   0   0   0   0   
      0   0   0   0   0   
      0   0   0   0   0   
      0   0   0   0   0   
      0   0   0   0   0   
      0   0   0   0   0   
      0   0   0   0   0   
      0   0   0   0   0   
      0   0   0   0   0   
      0   0   0   0   0   
      0   0   0   0   0   
      0   0   0   0   0   
      0   0   0   0   0   
      0   0   0   0   0   
      0   0   0   0   0   
      0   0   0   0   0   
      0   0   0   0   0   
      0   0   0   0   0   
      0   0   0   0   0   
      0   0   0   0   0   
      0   0   0   0   0   
      0   0   0   0   0   
      0   0   0   0   0   
      0   0   0   0   0   
      0   0   0   0   0   
      0   0   0   0   0   
      0   0   0   0   0   
      0.574238303602   0.574224146312   0.57418170649   0.574111080853   0.574012432501   
      0.573885993784   0.573732070313   0.573551046113   0.573343389923   0.573109662585   
      0.572850525512   0.572566750134   0.572259228221   0.571928982916   0.571577180262   
      0.57120514094   0.570814351856   0.57040647715   0.569983368104   0.569547071371   
      0.569099834872   0.568644110669   0.5681825541   0.567718018473   0.567253544683   
      0.566792345179   0.566337781893   0.565893337892   0.565462582756   0.565049131953   
      0.564656600742   0.564288553435   0.563948449118   0.563639585183   0.563365040219   
      0.563127617945   0.562929793973   0.562773667129   0.562660917013   0.562592769277   
      0.562569969887   0.562592769277   0.562660917013   0.562773667129   0.562929793973   
      0.563127617945   0.563365040219   0.563639585183   0.563948449118   0.564288553435   
      0.564656600742   0.565049131953   0.565462582756   0.565893337892   0.566337781893   
      0.566792345179   0.567253544683   0.567718018473   0.5681825541   0.568644110669   
      0.569099834872   0.569547071371   0.569983368104   0.57040647715   0.570814351856   
      0.57120514094   0.571577180262   0.571928982916   0.572259228221   0.572566750134   
      0.572850525512   0.573109662585   0.573343389923   0.573551046113   0.573732070313   
      0.573885993784   0.574012432501   0.574111080853   0.57418170649   0.574224146312   
      0.462796458396   0.462776833113   0.462718000711   0.462620092384   0.462483329627   
      0.462308028497   0.462094605568   0.461843585574   0.4615556107   0.461231451485   
      0.460872019229   0.460478379792   0.460051768578   0.459593606456   0.459105516259   
      0.458589339431   0.458047152285   0.457481281204   0.456894316061   0.456289120997   
      0.455668841658   0.455036907922   0.45439703117   0.453753195171   0.453109639776   
      0.452470836762   0.451841457372   0.451226331403   0.450630397974   0.450058648479   
      0.449516062599   0.449007538576   0.448537819336   0.448111416275   0.447732532795   
      0.447404989776   0.447132155253   0.446916880472   0.446761444416   0.446667508588   
      0.446636083588   0.446667508588   0.446761444416   0.446916880472   0.447132155253   
      0.447404989776   0.447732532795   0.448111416275   0.448537819336   0.449007538576   
      0.449516062599   0.450058648479   0.450630397974   0.451226331403   0.451841457372   
      0.452470836762   0.453109639776   0.453753195171   0.45439703117   0.455036907922   
      0.455668841658   0.456289120997   0.456894316061   0.457481281204   0.458047152285   
      0.458589339431   0.459105516259   0.459593606456   0.460051768578   0.460478379792   
      0.460872019229   0.461231451485   0.4615556107   0.461843585574   0.462094605568   
      0.462308028497   0.462483329627   0.462620092384   0.462718000711   0.462776833113   
      0.438306214987   0.438280789248   0.438204571742   0.438077742727   0.437900606351   
      0.437673596219   0.437397283159   0.437072385147   0.436699779326   0.436280516011   
      0.435815834537   0.435307180724   0.434756225663   0.434164885432   0.433535341241   
      0.432870059387   0.432171810275   0.431443685649   0.430689113042   0.4299118664   
      0.429116071741   0.42830620671   0.427487092943   0.426663880221   0.425842021605   
      0.425027238942   0.424225478464   0.423442856519   0.422685595912   0.421959953686   
      0.421272141615   0.420628241037   0.420034113972   0.419495312731   0.41901699038   
      0.418603814491   0.41825988659   0.417988669605   0.41779292539   0.41767466414   
      0.41763510717   0.41767466414   0.41779292539   0.417988669605   0.41825988659   
      0.418603814491   0.41901699038   0.419495312731   0.420034113972   0.420628241037   
      0.421272141615   0.421959953686   0.422685595912   0.423442856519   0.424225478464   
      0.425027238942   0.425842021605   0.426663880221   0.427487092943   0.42830620671   
      0.429116071741   0.4299118664   0.430689113042   0.431443685649   0.432171810275   
      0.432870059387   0.433535341241   0.434164885432   0.434756225663   0.435307180724   
      0.435815834537   0.436280516011   0.436699779326   0.437072385147   0.437397283159   
      0.437673596219   0.437900606351   0.438077742727   0.438204571742   0.438280789248   
      0.414060486389   0.414029249089   0.413935617023   0.413779831053   0.413562297122   
      0.413283593001   0.41294447765   0.412545903138   0.412089028997   0.411575238826   
      0.411006158918   0.410383678562   0.409709971605   0.408987518711   0.408219129646   
      0.407407964773   0.406557554798   0.405671817713   0.404755071737   0.403812043024   
      0.402847866865   0.401868081169   0.400878611089   0.399885743874   0.398896093255   
      0.397916553021   0.396954239806   0.396016425539   0.395110460432   0.394243687808   
      0.393423352446   0.392656504438   0.391949900809   0.39130990726   0.390742402478   
      0.39025268738   0.389845401551   0.389524448904   0.389292934357   0.389153113018   
      0.389106353044   0.389153113018   0.389292934357   0.389524448904   0.389845401551   
      0.39025268738   0.390742402478   0.39130990726   0.391949900809   0.392656504438   
      0.393423352446   0.394243687808   0.395110460432   0.396016425539   0.396954239806   
      0.397916553021   0.398896093255   0.399885743874   0.400878611089   0.401868081169   
      0.402847866865   0.403812043024   0.404755071737   0.405671817713   0.406557554798   
      0.407407964773   0.408219129646   0.408987518711   0.409709971605   0.410383678562   
      0.411006158918   0.411575238826   0.412089028997   0.412545903138   0.41294447765   
      0.413283593001   0.413562297122   0.413779831053   0.413935617023   0.414029249089   
      0.395033726844   0.394998066652   0.394891185351   0.394713382285   0.394465161392   
      0.394147238702   0.393760552726   0.393306277602   0.392785838833   0.392200931347   
      0.391553539549   0.390845958905   0.390080818508   0.389261103911   0.388390179386   
      0.387471808627   0.386510172784   0.385509884586   0.384475997275   0.383414006999   
      0.382329847393   0.38122987517   0.380120845722   0.379009878035   0.377904408514   
      0.376812133785   0.375740942889   0.374698839826   0.373693857744   0.372733966518   
      0.371826975714   0.370980435169   0.370201535489   0.369497010804   0.368873045947   
      0.368335190111   0.367888278732   0.367536365112   0.367282662978   0.367129500933   
      0.367078289455   0.367129500933   0.367282662978   0.367536365112   0.367888278732   
      0.368335190111   0.368873045947   0.369497010804   0.370201535489   0.370980435169   
      0.371826975714   0.372733966518   0.373693857744   0.374698839826   0.375740942889   
      0.376812133785   0.377904408514   0.379009878035   0.380120845722   0.38122987517   
      0.382329847393   0.383414006999   0.384475997275   0.385509884586   0.386510172784   
      0.387471808627   0.388390179386   0.389261103911   0.390080818508   0.390845958905   
      0.391553539549   0.392200931347   0.392785838833   0.393306277602   0.393760552726   
      0.394147238702   0.394465161392   0.394713382285   0.394891185351   0.394998066652   
      0.380130217476   0.380091517994   0.37997553541   0.379782618914   0.379513355836   
      0.379168579587   0.378749380624   0.378257120262   0.377693447092   0.377060315671   
      0.376360007046   0.37559515056   0.374768746238   0.373884186934   0.372945279237   
      0.371956262036   0.370921821487   0.369847101077   0.368737705406   0.367599696375   
      0.366439580542   0.365264286611   0.364081132284   0.362897780054   0.361722181936   
      0.360562513587   0.359427098719   0.358324325161   0.357262554318   0.356250026054   
      0.355294761231   0.35440446421   0.353586427547   0.352847440966   0.352193706446   
      0.35163076094   0.351163407911   0.350795658555   0.350530683288   0.350370773836   
      0.350317316093   0.350370773836   0.350530683288   0.350795658555   0.351163407911   
      0.35163076094   0.352193706446   0.352847440966   0.353586427547   0.35440446421   
      0.355294761231   0.356250026054   0.357262554318   0.358324325161   0.359427098719   
      0.360562513587   0.361722181936   0.362897780054   0.364081132284   0.365264286611   
      0.366439580542   0.367599696375   0.368737705406   0.369847101077   0.370921821487   
      0.371956262036   0.372945279237   0.373884186934   0.374768746238   0.37559515056   
      0.376360007046   0.377060315671   0.377693447092   0.378257120262   0.378749380624   
      0.379168579587   0.379513355836   0.379782618914   0.37997553541   0.380091517994   
      0.369383251704   0.369342669943   0.369221053166   0.369018788556   0.36873652693   
      0.368375190923   0.367935986238   0.367420415757   0.366830296209   0.366167776998   
      0.365435360663   0.364635924326   0.363772741337   0.362849502164   0.361870333448   
      0.360839814001   0.359762986431   0.358645363021   0.357492924498   0.356312110389   
      0.355109799869   0.353893282205   0.352670216277   0.351448579062   0.350236603414   
      0.349042705971   0.347875406494   0.346743240332   0.345654666065   0.344617970582   
      0.343641173914   0.342731936104   0.341897468209   0.341144449211   0.340478950293   
      0.339906367498   0.339431363427   0.339057818283   0.338788790269   0.338626485196   
      0.338572235037   0.338626485196   0.338788790269   0.339057818283   0.339431363427   
      0.339906367498   0.340478950293   0.341144449211   0.341897468209   0.342731936104   
      0.343641173914   0.344617970582   0.345654666065   0.346743240332   0.347875406494   
      0.349042705971   0.350236603414   0.351448579062   0.352670216277   0.353893282205   
      0.355109799869   0.356312110389   0.357492924498   0.358645363021   0.359762986431   
      0.360839814001   0.361870333448   0.362849502164   0.363772741337   0.364635924326   
      0.365435360663   0.366167776998   0.366830296209   0.367420415757   0.367935986238   
      0.368375190923   0.36873652693   0.369018788556   0.369221053166   0.369342669943   
      0.362492677469   0.362451042271   0.362326273652   0.362118784221   0.361829267265   
      0.361458705038   0.361008380138   0.360479889723   0.359875162228   0.359196476108   
      0.358446480062   0.357628213988   0.356745129817   0.35580111121   0.35480049095   
      0.353748064762   0.352649100186   0.351509339118   0.350334992672   0.349132727115   
      0.347909639861   0.346673224809   0.34543132668   0.34419208448   0.342963864692   
      0.341755185307   0.340574632258   0.339430770213   0.338332049947   0.337286714682   
      0.336302707741   0.335387583742   0.334548425257   0.333791766494   0.333123525115   
      0.33254894286   0.332072535228   0.331698050103   0.331428434975   0.331265812242   
      0.331211462056   0.331265812242   0.331428434975   0.331698050103   0.332072535228   
      0.33254894286   0.333123525115   0.333791766494   0.334548425257   0.335387583742   
      0.336302707741   0.337286714682   0.338332049947   0.339430770213   0.340574632258   
      0.341755185307   0.342963864692   0.34419208448   0.34543132668   0.346673224809   
      0.347909639861   0.349132727115   0.350334992672   0.351509339118   0.352649100186   
      0.353748064762   0.35480049095   0.35580111121   0.356745129817   0.357628213988   
      0.358446480062   0.359196476108   0.359875162228   0.360479889723   0.361008380138   
      0.361458705038   0.361829267265   0.362118784221   0.362326273652   0.362451042271   
      0.359145787359   0.359103686787   0.358977526289   0.358767731216   0.358475016123   
      0.358100393103   0.357645183205   0.357111030677   0.356499919655   0.355814192834   
      0.355056571489   0.35423017611   0.353338546737   0.352385661938   0.351375955242   
      0.35031432772   0.349206155316   0.348057289563   0.34687405031   0.345663209288   
      0.344431963539   0.343187898082   0.341938937587   0.340693287305   0.339459364008   
      0.338245718183   0.337060949193   0.335913615469   0.334812142059   0.333764727947   
      0.332779255517   0.331863204321   0.331023570996   0.330266796743   0.329598703309   
      0.329024437952   0.328548427422   0.328174340657   0.327905059624   0.327742657637   
      0.327688384462   0.327742657637   0.327905059624   0.328174340657   0.328548427422   
      0.329024437952   0.329598703309   0.330266796743   0.331023570996   0.331863204321   
      0.332779255517   0.333764727947   0.334812142059   0.335913615469   0.337060949193   
      0.338245718183   0.339459364008   0.340693287305   0.341938937587   0.343187898082   
      0.344431963539   0.345663209288   0.34687405031   0.348057289563   0.349206155316   
      0.35031432772   0.351375955242   0.352385661938   0.353338546737   0.35423017611   
      0.355056571489   0.355814192834   0.356499919655   0.357111030677   0.357645183205   
      0.358100393103   0.358475016123   0.358767731216   0.358977526289   0.359103686787   
      0.359145787359   0.359103686787   0.358977526289   0.358767731216   0.358475016123   
      0.358100393103   0.357645183205   0.357111030677   0.356499919655   0.355814192834   
      0.355056571489   0.35423017611   0.353338546737   0.352385661938   0.351375955242   
      0.35031432772   0.349206155316   0.348057289563   0.34687405031   0.345663209288   
      0.344431963539   0.343187898082   0.341938937587   0.340693287305   0.339459364008   
      0.338245718183   0.337060949193   0.335913615469   0.334812142059   0.333764727947   
      0.332779255517   0.331863204321   0.331023570996   0.330266796743   0.329598703309   
      0.329024437952   0.328548427422   0.328174340657   0.327905059624   0.327742657637   
      0.327688384462   0.327742657637   0.327905059624   0.328174340657   0.328548427422   
      0.329024437952   0.329598703309   0.330266796743   0.331023570996   0.331863204321   
      0.332779255517   0.333764727947   0.334812142059   0.335913615469   0.337060949193   
      0.338245718183   0.339459364008   0.340693287305   0.341938937587   0.343187898082   
      0.344431963539   0.345663209288   0.34687405031   0.348057289563   0.349206155316   
      0.35031432772   0.351375955242   0.352385661938   0.353338546737   0.35423017611   
      0.355056571489   0.355814192834   0.356499919655   0.357111030677   0.357645183205   
      0.358100393103   0.358475016123   0.358767731216   0.358977526289   0.359103686787   
      0.362492677469   0.362451042271   0.362326273652   0.362118784221   0.361829267265   
      0.361458705038   0.361008380138   0.360479889723   0.359875162228   0.359196476108   
      0.358446480062   0.357628213988   0.356745129817   0.35580111121   0.35480049095   
      0.353748064762   0.352649100186   0.351509339118   0.350334992672   0.349132727115   
      0.347909639861   0.346673224809   0.34543132668   0.34419208448   0.342963864692   
      0.341755185307   0.340574632258   0.339430770213   0.338332049947   0.337286714682   
      0.336302707741   0.335387583742   0.334548425257   0.333791766494   0.333123525115   
      0.33254894286   0.332072535228   0.331698050103   0.331428434975   0.331265812242   
      0.331211462056   0.331265812242   0.331428434975   0.331698050103   0.332072535228   
      0.33254894286   0.333123525115   0.333791766494   0.334548425257   0.335387583742   
      0.336302707741   0.337286714682   0.338332049947   0.339430770213   0.340574632258   
      0.341755185307   0.342963864692   0.34419208448   0.34543132668   0.346673224809   
      0.347909639861   0.349132727115   0.350334992672   0.351509339118   0.352649100186   
      0.353748064762   0.35480049095   0.35580111121   0.356745129817   0.357628213988   
      0.358446480062   0.359196476108   0.359875162228   0.360479889723   0.361008380138   
      0.361458705038   0.361829267265   0.362118784221   0.362326273652   0.362451042271   
      0.369383251704   0.369342669943   0.369221053166   0.369018788556   0.36873652693   
      0.368375190923   0.367935986238   0.367420415757   0.366830296209   0.366167776998   
      0.365435360663   0.364635924326   0.363772741337   0.362849502164   0.361870333448   
      0.360839814001   0.359762986431   0.358645363021   0.357492924498   0.356312110389   
      0.355109799869   0.353893282205   0.352670216277   0.351448579062   0.350236603414   
      0.349042705971   0.347875406494   0.346743240332   0.345654666065   0.344617970582   
      0.343641173914   0.342731936104   0.341897468209   0.341144449211   0.340478950293   
      0.339906367498   0.339431363427   0.339057818283   0.338788790269   0.338626485196   
      0.338572235037   0.338626485196   0.338788790269   0.339057818283   0.339431363427   
      0.339906367498   0.340478950293   0.341144449211   0.341897468209   0.342731936104   
      0.343641173914   0.344617970582   0.345654666065   0.346743240332   0.347875406494   
      0.349042705971   0.350236603414   0.351448579062   0.352670216277   0.353893282205   
      0.355109799869   0.356312110389   0.357492924498   0.358645363021   0.359762986431   
      0.360839814001   0.361870333448   0.362849502164   0.363772741337   0.364635924326   
      0.365435360663   0.366167776998   0.366830296209   0.367420415757   0.367935986238   
      0.368375190923   0.36873652693   0.369018788556   0.369221053166   0.369342669943   
      0.380130217476   0.380091517994   0.37997553541   0.379782618914   0.379513355836   
      0.379168579587   0.378749380624   0.378257120262   0.377693447092   0.377060315671   
      0.376360007046   0.37559515056   0.374768746238   0.373884186934   0.372945279237   
      0.371956262036   0.370921821487   0.369847101077   0.368737705406   0.367599696375   
      0.366439580542   0.365264286611   0.364081132284   0.362897780054   0.361722181936   
      0.360562513587   0.359427098719   0.358324325161   0.357262554318   0.356250026054   
      0.355294761231   0.35440446421   0.353586427547   0.352847440966   0.352193706446   
      0.35163076094   0.351163407911   0.350795658555   0.350530683288   0.350370773836   
      0.350317316093   0.350370773836   0.350530683288   0.350795658555   0.351163407911   
      0.35163076094   0.352193706446   0.352847440966   0.353586427547   0.35440446421   
      0.355294761231   0.356250026054   0.357262554318   0.358324325161   0.359427098719   
      0.360562513587   0.361722181936   0.362897780054   0.364081132284   0.365264286611   
      0.366439580542   0.367599696375   0.368737705406   0.369847101077   0.370921821487   
      0.371956262036   0.372945279237   0.373884186934   0.374768746238   0.37559515056   
      0.376360007046   0.377060315671   0.377693447092   0.378257120262   0.378749380624   
      0.379168579587   0.379513355836   0.379782618914   0.37997553541   0.380091517994   
      0.395033726844   0.394998066652   0.394891185351   0.394713382285   0.394465161392   
      0.394147238702   0.393760552726   0.393306277602   0.392785838833   0.392200931347   
      0.391553539549   0.390845958905   0.390080818508   0.389261103911   0.388390179386   
      0.387471808627   0.386510172784   0.385509884586   0.384475997275   0.383414006999   
      0.382329847393   0.38122987517   0.380120845722   0.379009878035   0.377904408514   
      0.376812133785   0.375740942889   0.374698839826   0.373693857744   0.372733966518   
      0.371826975714   0.370980435169   0.370201535489   0.369497010804   0.368873045947   
      0.368335190111   0.367888278732   0.367536365112   0.367282662978   0.367129500933   
      0.367078289455   0.367129500933   0.367282662978   0.367536365112   0.367888278732   
      0.368335190111   0.368873045947   0.369497010804   0.370201535489   0.370980435169   
      0.371826975714   0.372733966518   0.373693857744   0.374698839826   0.375740942889   
      0.376812133785   0.377904408514   0.379009878035   0.380120845722   0.38122987517   
      0.382329847393   0.383414006999   0.384475997275   0.385509884586   0.386510172784   
      0.387471808627   0.388390179386   0.389261103911   0.390080818508   0.390845958905   
      0.391553539549   0.392200931347   0.392785838833   0.393306277602   0.393760552726   
      0.394147238702   0.394465161392   0.394713382285   0.394891185351   0.394998066652   