<?xml version="1.0"?>
<VTKFile type="ImageData" version="0.1" byte_order="LittleEndian">
  <ImageData WholeExtent="0 79 0 19 0 19" Origin="0 0 0" Spacing="1 1 1">
  <Piece Extent="0 79 0 19 0 19">
    <PointData Scalars="density">
       <DataArray type="Float32" Name="bluedensity" NumberOfComponents="1" format="ascii">
      0   0   0   0   0   
      0   0   0   0   0   
      0   0   0   0   0   
      0   0   0   0   0   
      0   0   0   0   0   
      0   0   0   0   0   
      0   0   0   0   0   
      0   0   0   0   0   
      0   0   0   0   0   
      0   0   0   0   0   
      0   0   0   0   0   
      0   0   0   0   0   
      0   0   0   0   0   
      0   0   0   0   0   
      0   0   0   0   0   
      0   0   0   0   0   
      0   0   0   0   0   
      0   0   0   0   0   
      0   0   0   0   0   
      0   0   0   0   0   
      0   0   0   0   0   
      0   0   0   0   0   
      0   0   0   0   0   
      0   0   0   0   0   
      0   0   0   0   0   
      0   0   0   0   0   
      0   0   0   0   0   
      0   0   0   0   0   
      0   0   0   0   0   
      0   0   0   0   0   
      0   0   0   0   0   
      0   0   0   0   0   
      0   0   0   0   0   
      0   0   0   0   0   
      0   0   0   0   0   
      0   0   0   0   0   
      0   0   0   0   0   
      0   0   0   0   0   
      0   0   0   0   0   
      0   0   0   0   0   
      0   0   0   0   0   
      0   0   0   0   0   
      0   0   0   0   0   
      0   0   0   0   0   
      0   0   0   0   0   
      0   0   0   0   0   
      0   0   0   0   0   
      0   0   0   0   0   
      0   0   0   0   0   
      0   0   0   0   0   
      0   0   0   0   0   
      0   0   0   0   0   
      0   0   0   0   0   
      0   0   0   0   0   
      0   0   0   0   0   
      0   0   0   0   0   
      0   0   0   0   0   
      0   0   0   0   0   
      0   0   0   0   0   
      0   0   0   0   0   
      0   0   0   0   0   
      0   0   0   0   0   
      0   0   0   0   0   
      0   0   0   0   0   
      0   0   0   0   0   
      0   0   0   0   0   
      0   0   0   0   0   
      0   0   0   0   0   
      0   0   0   0   0   
      0   0   0   0   0   
      0   0   0   0   0   
      0   0   0   0   0   
      0   0   0   0   0   
      0   0   0   0   0   
      0   0   0   0   0   
      0   0   0   0   0   
      0   0   0   0   0   
      0   0   0   0   0   
      0   0   0   0   0   
      0   0   0   0   0   
      0   0   0   0   0   
      0   0   0   0   0   
      0   0   0   0   0   
      0   0   0   0   0   
      0   0   0   0   0   
      0   0   0   0   0   
      0   0   0   0   0   
      0   0   0   0   0   
      0   0   0   0   0   
      0   0   0   0   0   
      0   0   0   0   0   
      0   0   0   0   0   
      0   0   0   0   0   
      0   0   0   0   0   
      0   0   0   0   0   
      0   0   0   0   0   
      0   0   0   0   0   
      0   0   0   0   0   
      0   0   0   0   0   
      0   0   0   0   0   
      0   0   0   0   0   
      0   0   0   0   0   
      0   0   0   0   0   
      0   0   0   0   0   
      0   0   0   0   0   
      0   0   0   0   0   
      0   0   0   0   0   
      0   0   0   0   0   
      0   0   0   0   0   
      0   0   0   0   0   
      0   0   0   0   0   
      0   0   0   0   0   
      0   0   0   0   0   
      0   0   0   0   0   
      0   0   0   0   0   
      0   0   0   0   0   
      0   0   0   0   0   
      0   0   0   0   0   
      0   0   0   0   0   
      0   0   0   0   0   
      0   0   0   0   0   
      0   0   0   0   0   
      0   0   0   0   0   
      0   0   0   0   0   
      0   0   0   0   0   
      0   0   0   0   0   
      0   0   0   0   0   
      0   0   0   0   0   
      0   0   0   0   0   
      0   0   0   0   0   
      0   0   0   0   0   
      0   0   0   0   0   
      0   0   0   0   0   
      0   0   0   0   0   
      0   0   0   0   0   
      0   0   0   0   0   
      0   0   0   0   0   
      0   0   0   0   0   
      0   0   0   0   0   
      0   0   0   0   0   
      0   0   0   0   0   
      0   0   0   0   0   
      0   0   0   0   0   
      0   0   0   0   0   
      0   0   0   0   0   
      0   0   0   0   0   
      0   0   0   0   0   
      0   0   0   0   0   
      0   0   0   0   0   
      0   0   0   0   0   
      0   0   0   0   0   
      0   0   0   0   0   
      0   0   0   0   0   
      0   0   0   0   0   
      0   0   0   0   0   
      0   0   0   0   0   
      0   0   0   0   0   
      0   0   0   0   0   
      0   0   0   0   0   
      0   0   0   0   0   
      0   0   0   0   0   
      0   0   0   0   0   
      0   0   0   0   0   
      0   0   0   0   0   
      0   0   0   0   0   
      0   0   0   0   0   
      0   0   0   0   0   
      0   0   0   0   0   
      0   0   0   0   0   
      0   0   0   0   0   
      0   0   0   0   0   
      0   0   0   0   0   
      0   0   0   0   0   
      0   0   0   0   0   
      0   0   0   0   0   
      0   0   0   0   0   
      0   0   0   0   0   
      0   0   0   0   0   
      0   0   0   0   0   
      0   0   0   0   0   
      0   0   0   0   0   
      0   0   0   0   0   
      0   0   0   0   0   
      0   0   0   0   0   
      0   0   0   0   0   
      0   0   0   0   0   
      0   0   0   0   0   
      0   0   0   0   0   
      0   0   0   0   0   
      0   0   0   0   0   
      0   0   0   0   0   
      0   0   0   0   0   
      0   0   0   0   0   
      0   0   0   0   0   
      0   0   0   0   0   
      0   0   0   0   0   
      0   0   0   0   0   
      0   0   0   0   0   
      0   0   0   0   0   
      0   0   0   0   0   
      0   0   0   0   0   
      0   0   0   0   0   
      0   0   0   0   0   
      0   0   0   0   0   
      0   0   0   0   0   
      0   0   0   0   0   
      0   0   0   0   0   
      0   0   0   0   0   
      0   0   0   0   0   
      0   0   0   0   0   
      0   0   0   0   0   
      0   0   0   0   0   
      0   0   0   0   0   
      0   0   0   0   0   
      0   0   0   0   0   
      0   0   0   0   0   
      0   0   0   0   0   
      0   0   0   0   0   
      0   0   0   0   0   
      0   0   0   0   0   
      0   0   0   0   0   
      0   0   0   0   0   
      0   0   0   0   0   
      0   0   0   0   0   
      0   0   0   0   0   
      0   0   0   0   0   
      0   0   0   0   0   
      0   0   0   0   0   
      0   0   0   0   0   
      0   0   0   0   0   
      0   0   0   0   0   
      0   0   0   0   0   
      0   0   0   0   0   
      0   0   0   0   0   
      0   0   0   0   0   
      0   0   0   0   0   
      0   0   0   0   0   
      0   0   0   0   0   
      0   0   0   0   0   
      0   0   0   0   0   
      0   0   0   0   0   
      0   0   0   0   0   
      0   0   0   0   0   
      0   0   0   0   0   
      0   0   0   0   0   
      0   0   0   0   0   
      0   0   0   0   0   
      0   0   0   0   0   
      0   0   0   0   0   
      0   0   0   0   0   
      0   0   0   0   0   
      0   0   0   0   0   
      0   0   0   0   0   
      0   0   0   0   0   
      0   0   0   0   0   
      0   0   0   0   0   
      0   0   0   0   0   
      0   0   0   0   0   
      0   0   0   0   0   
      0   0   0   0   0   
      0   0   0   0   0   
      0   0   0   0   0   
      0   0   0   0   0   
      0   0   0   0   0   
      0   0   0   0   0   
      0   0   0   0   0   
      0   0   0   0   0   
      0   0   0   0   0   
      0   0   0   0   0   
      0   0   0   0   0   
      0   0   0   0   0   
      0   0   0   0   0   
      0   0   0   0   0   
      0   0   0   0   0   
      0   0   0   0   0   
      0   0   0   0   0   
      0   0   0   0   0   
      0   0   0   0   0   
      0   0   0   0   0   
      0   0   0   0   0   
      0   0   0   0   0   
      0   0   0   0   0   
      0   0   0   0   0   
      0   0   0   0   0   
      0   0   0   0   0   
      0   0   0   0   0   
      0   0   0   0   0   
      0   0   0   0   0   
      0   0   0   0   0   
      0   0   0   0   0   
      0   0   0   0   0   
      0   0   0   0   0   
      0   0   0   0   0   
      0   0   0   0   0   
      0   0   0   0   0   
      0   0   0   0   0   
      0   0   0   0   0   
      0   0   0   0   0   
      0   0   0   0   0   
      0   0   0   0   0   
      0   0   0   0   0   
      0   0   0   0   0   
      0   0   0   0   0   
      0   0   0   0   0   
      0   0   0   0   0   
      0   0   0   0   0   
      0   0   0   0   0   
      0   0   0   0   0   
      0   0   0   0   0   
      0   0   0   0   0   
      0   0   0   0   0   
      0   0   0   0   0   
      0   0   0   0   0   
      0   0   0   0   0   
      0   0   0   0   0   
      0   0   0   0   0   
      0   0   0   0   0   
      0   0   0   0   0   
      0   0   0   0   0   
      0   0   0   0   0   
      0   0   0   0   0   
      0   0   0   0   0   
      0   0   0   0   0   
      0   0   0   0   0   
      0   0   0   0   0   
      0   0   0   0   0   
      0   0   0   0   0   
      0   0   0   0   0   
      0   0   0   0   0   
      0   0   0   0   0   
      0   0   0   0   0   
      0   0   0   0   0   
      0   0   0   0   0   
      0   0   0   0   0   
      0   0   0   0   0   
      0   0   0   0   0   
      0.578555647075   0.578531425007   0.578458752246   0.578337609907   0.578167969183   
      0.57794979552   0.577683054815   0.577367721971   0.577003792288   0.576591296235   
      0.576130318255   0.575621020346   0.57506367118   0.574458681515   0.573806646602   
      0.573108396052   0.572365051372   0.57157809089   0.570749421206   0.56988145353   
      0.568977182417   0.568040263445   0.567075085454   0.566086832171   0.56508152743   
      0.564066058022   0.563048168401   0.562036422282   0.561040127421   0.56006922169   
      0.559134120709   0.558245529644   0.557414224193   0.5566508079   0.555965454785   
      0.555367647476   0.554865921714   0.554467628088   0.55417872126   0.554003585774   
      0.553944905997   0.554003585774   0.55417872126   0.554467628088   0.554865921714   
      0.555367647476   0.555965454785   0.5566508079   0.557414224193   0.558245529644   
      0.559134120709   0.56006922169   0.561040127421   0.562036422282   0.563048168401   
      0.564066058022   0.56508152743   0.566086832171   0.567075085454   0.568040263445   
      0.568977182417   0.56988145353   0.570749421206   0.57157809089   0.572365051372   
      0.573108396052   0.573806646602   0.574458681515   0.57506367118   0.575621020346   
      0.576130318255   0.576591296235   0.577003792288   0.577367721971   0.577683054815   
      0.57794979552   0.578167969183   0.578337609907   0.578458752246   0.578531425007   
      0.469042959122   0.469009564962   0.468909366407   0.468742316512   0.468508341383   
      0.468207346958   0.467839229028   0.467403887027   0.466901242274   0.466331261474   
      0.465693986425   0.464989570941   0.464218326031   0.463380774299   0.46247771434   
      0.461510295564   0.460480103341   0.459389253636   0.458240495348   0.45703731746   
      0.455784056848   0.454486001356   0.453149481561   0.451781943801   0.450391996573   
      0.448989422549   0.447585149313   0.446191173464   0.444820434959   0.443486641343   
      0.44220404449   0.440987175577   0.439850546711   0.438808329871   0.437874025298   
      0.437060132165   0.436377834219   0.43583671233   0.435444494488   0.435206852108   
      0.435127249595   0.435206852108   0.435444494488   0.43583671233   0.436377834219   
      0.437060132165   0.437874025298   0.438808329871   0.439850546711   0.440987175577   
      0.44220404449   0.443486641343   0.444820434959   0.446191173464   0.447585149313   
      0.448989422549   0.450391996573   0.451781943801   0.453149481561   0.454486001356   
      0.455784056848   0.45703731746   0.458240495348   0.459389253636   0.460480103341   
      0.461510295564   0.46247771434   0.463380774299   0.464218326031   0.464989570941   
      0.465693986425   0.466331261474   0.466901242274   0.467403887027   0.467839229028   
      0.468207346958   0.468508341383   0.468742316512   0.468909366407   0.469009564962   
      0.446615779473   0.446572295633   0.446441828548   0.446224333446   0.445919742215   
      0.445527973523   0.44504894767   0.444482606872   0.443828941849   0.443088025731   
      0.442260056431   0.441345408672   0.440344696818   0.439258849443   0.438089196247   
      0.436837567322   0.435506403963   0.43409887913   0.432619024387   0.431071858649   
      0.429463512568   0.427801340971   0.426094014654   0.424351582248   0.422585493029   
      0.420808572509   0.419034944567   0.417279896588   0.415559687445   0.413891301783   
      0.412292157643   0.410779777517   0.409371435208   0.408083792078   0.406932536452   
      0.405932039073   0.405095035941   0.404432347783   0.403952643233   0.40366225069   
      0.403565022119   0.40366225069   0.403952643233   0.404432347783   0.405095035941   
      0.405932039073   0.406932536452   0.408083792078   0.409371435208   0.410779777517   
      0.412292157643   0.413891301783   0.415559687445   0.417279896588   0.419034944567   
      0.420808572509   0.422585493029   0.424351582248   0.426094014654   0.427801340971   
      0.429463512568   0.431071858649   0.432619024387   0.43409887913   0.435506403963   
      0.436837567322   0.438089196247   0.439258849443   0.440344696818   0.441345408672   
      0.442260056431   0.443088025731   0.443828941849   0.444482606872   0.44504894767   
      0.445527973523   0.445919742215   0.446224333446   0.446441828548   0.446572295633   
      0.424488952387   0.424435019694   0.424273216084   0.424003527642   0.423625940229   
      0.423140453491   0.422547101324   0.421845979636   0.42103728243   0.420121347391   
      0.419098712251   0.417970183176   0.416736916222   0.415400512597   0.413963127785   
      0.412427593766   0.410797552336   0.409077596102   0.407273412051   0.405391920834   
      0.40344140327   0.401431604252   0.39937380355   0.397280843161   0.39516710206   
      0.393048411539   0.390941907628   0.388865821213   0.38683921081   0.384881647182   
      0.38301286239   0.381252378149   0.37961912917   0.378131096512   0.37680496402   
      0.375655808072   0.374696827574   0.373939117869   0.37339148953   0.373060330948   
      0.372949512635   0.373060330948   0.37339148953   0.373939117869   0.374696827574   
      0.375655808072   0.37680496402   0.378131096512   0.37961912917   0.381252378149   
      0.38301286239   0.384881647182   0.38683921081   0.388865821213   0.390941907628   
      0.393048411539   0.39516710206   0.397280843161   0.39937380355   0.401431604252   
      0.40344140327   0.405391920834   0.407273412051   0.409077596102   0.410797552336   
      0.412427593766   0.413963127785   0.415400512597   0.416736916222   0.417970183176   
      0.419098712251   0.420121347391   0.42103728243   0.421845979636   0.422547101324   
      0.423140453491   0.423625940229   0.424003527642   0.424273216084   0.424435019694   
      0.407135339522   0.407073093831   0.406886368808   0.406575203993   0.406139676729   
      0.405579919825   0.404896147251   0.40408868882   0.403158034954   0.402104892824   
      0.400930255104   0.399635482497   0.398222400831   0.396693412918   0.395051624529   
      0.393300982555   0.391446421937   0.389494016128   0.387451123922   0.385326523623   
      0.383130524003   0.380875040605   0.378573626054   0.376241444295   0.373895181301   
      0.371552888633   0.369233760981   0.366957853994   0.364745753614   0.362618212091   
      0.360595768322   0.35869837075   0.3569450197   0.355353443087   0.353939815226   
      0.352718523867   0.351701986037   0.350900509472   0.350322193793   0.349972864172   
      0.349856030245   0.349972864172   0.350322193793   0.350900509472   0.351701986037   
      0.352718523867   0.353939815226   0.355353443087   0.3569450197   0.35869837075   
      0.360595768322   0.362618212091   0.364745753614   0.366957853994   0.369233760981   
      0.371552888633   0.373895181301   0.376241444295   0.378573626054   0.380875040605   
      0.383130524003   0.385326523623   0.387451123922   0.389494016128   0.391446421937   
      0.393300982555   0.395051624529   0.396693412918   0.398222400831   0.399635482497   
      0.400930255104   0.402104892824   0.403158034954   0.40408868882   0.404896147251   
      0.405579919825   0.406139676729   0.406575203993   0.406886368808   0.407073093831   
      0.393427435606   0.39335920336   0.393154537912   0.392813537154   0.392336377801   
      0.391723336271   0.390974818985   0.390091403071   0.389073888662   0.387923364023   
      0.386641284715   0.385229567704   0.383690700836   0.382027867244   0.380245083105   
      0.378347345613   0.376340786189   0.374232821902   0.372032296   0.36974959664   
      0.36739674175   0.36498741769   0.362536960506   0.36006227113   0.357581659906   
      0.355114621076   0.352681543723   0.350303371406   0.348001227532   0.345796026607   
      0.343708092375   0.341756802425   0.339960275244   0.3383351106   0.336896188299   
      0.335656524557   0.334627180301   0.333817212015   0.333233653709   0.332881518167   
      0.332763806605   0.332881518167   0.333233653709   0.333817212015   0.334627180301   
      0.335656524557   0.336896188299   0.3383351106   0.339960275244   0.341756802425   
      0.343708092375   0.345796026607   0.348001227532   0.350303371406   0.352681543723   
      0.355114621076   0.357581659906   0.36006227113   0.362536960506   0.36498741769   
      0.36739674175   0.36974959664   0.372032296   0.374232821902   0.376340786189   
      0.378347345613   0.380245083105   0.382027867244   0.383690700836   0.385229567704   
      0.386641284715   0.387923364023   0.389073888662   0.390091403071   0.390974818985   
      0.391723336271   0.392336377801   0.392813537154   0.393154537912   0.39335920336   
      0.383453440333   0.383381306207   0.383164951796   0.382804525546   0.382300290201   
      0.381652646362   0.3808621666   0.379929641127   0.378856136214   0.377643066559   
      0.376292282661   0.374806173852   0.373187786963   0.37144095954   0.369570465127   
      0.367582166306   0.365483169127   0.363281970339   0.360988586743   0.35861465438   
      0.356173484542   0.35368006409   0.351150989703   0.348604329392   0.346059409927   
      0.343536535058   0.34105664598   0.338640941299   0.336310478012   0.334085776914   
      0.331986455037   0.330030904376   0.328236030718   0.326617059763   0.32518741088   
      0.323958632607   0.322940389192   0.32214048434   0.321564907089   0.321217885173   
      0.321101933109   0.321217885173   0.321564907089   0.32214048434   0.322940389192   
      0.323958632607   0.32518741088   0.326617059763   0.328236030718   0.330030904376   
      0.331986455037   0.334085776914   0.336310478012   0.338640941299   0.34105664598   
      0.343536535058   0.346059409927   0.348604329392   0.351150989703   0.35368006409   
      0.356173484542   0.35861465438   0.360988586743   0.363281970339   0.365483169127   
      0.367582166306   0.369570465127   0.37144095954   0.373187786963   0.374806173852   
      0.376292282661   0.377643066559   0.378856136214   0.379929641127   0.3808621666   
      0.381652646362   0.382300290201   0.382804525546   0.383164951796   0.383381306207   
      0.377013692293   0.376939263437   0.376716036754   0.376344196844   0.375824068007   
      0.375156139792   0.374341103895   0.373379903452   0.372273795874   0.371024430377   
      0.369633941114   0.36810505632   0.366441223078   0.364646746066   0.362726937081   
      0.360688270133   0.358538534679   0.356286977294   0.35394442001   0.351523342196   
      0.349037912513   0.346503958643   0.343938865385   0.341361396364   0.33879144069   
      0.336249692847   0.333757280868   0.33133536356   0.329004721093   0.326785364076   
      0.324696184149   0.322754664301   0.32097666052   0.319376258828   0.31796570444   
      0.316755393583   0.315753913971   0.31496811746   0.314403207782   0.314062827384   
      0.313949129813   0.314062827384   0.314403207782   0.31496811746   0.315753913971   
      0.316755393583   0.31796570444   0.319376258828   0.32097666052   0.322754664301   
      0.324696184149   0.326785364076   0.329004721093   0.33133536356   0.333757280868   
      0.336249692847   0.33879144069   0.341361396364   0.343938865385   0.346503958643   
      0.349037912513   0.351523342196   0.35394442001   0.356286977294   0.358538534679   
      0.360688270133   0.362726937081   0.364646746066   0.366441223078   0.36810505632   
      0.369633941114   0.371024430377   0.372273795874   0.373379903452   0.374341103895   
      0.375156139792   0.375824068007   0.376344196844   0.376716036754   0.376939263437   
      0.373872368268   0.373796885843   0.373570504627   0.373193427954   0.372666012048   
      0.371988792628   0.371162523306   0.370188226785   0.369067260039   0.367801394534   
      0.366392912334   0.364844718362   0.363160468189   0.361344709412   0.359403033026   
      0.357342229062   0.355170438534   0.352897291381   0.35053401812   0.348093521681   
      0.345590395812   0.343040877989   0.340462728051   0.337875028942   0.335297912435   
      0.332752219928   0.330259115279   0.327839672179   0.325514461661   0.323303165577   
      0.321224238984   0.319294638924   0.317529629794   0.315942667656   0.3145453583   
      0.313347477784   0.312357039909   0.311580392902   0.311022327416   0.310686179363   
      0.310573913776   0.310686179363   0.311022327416   0.311580392902   0.312357039909   
      0.313347477784   0.3145453583   0.315942667656   0.317529629794   0.319294638924   
      0.321224238984   0.323303165577   0.325514461661   0.327839672179   0.330259115279   
      0.332752219928   0.335297912435   0.337875028942   0.340462728051   0.343040877989   
      0.345590395812   0.348093521681   0.35053401812   0.352897291381   0.355170438534   
      0.357342229062   0.359403033026   0.361344709412   0.363160468189   0.364844718362   
      0.366392912334   0.367801394534   0.369067260039   0.370188226785   0.371162523306   
      0.371988792628   0.372666012048   0.373193427954   0.373570504627   0.373796885843   
      0.373872368268   0.373796885843   0.373570504627   0.373193427954   0.372666012048   
      0.371988792628   0.371162523306   0.370188226785   0.369067260039   0.367801394534   
      0.366392912334   0.364844718362   0.363160468189   0.361344709412   0.359403033026   
      0.357342229062   0.355170438534   0.352897291381   0.35053401812   0.348093521681   
      0.345590395812   0.343040877989   0.340462728051   0.337875028942   0.335297912435   
      0.332752219928   0.330259115279   0.327839672179   0.325514461661   0.323303165577   
      0.321224238984   0.319294638924   0.317529629794   0.315942667656   0.3145453583   
      0.313347477784   0.312357039909   0.311580392902   0.311022327416   0.310686179363   
      0.310573913776   0.310686179363   0.311022327416   0.311580392902   0.312357039909   
      0.313347477784   0.3145453583   0.315942667656   0.317529629794   0.319294638924   
      0.321224238984   0.323303165577   0.325514461661   0.327839672179   0.330259115279   
      0.332752219928   0.335297912435   0.337875028942   0.340462728051   0.343040877989   
      0.345590395812   0.348093521681   0.35053401812   0.352897291381   0.355170438534   
      0.357342229062   0.359403033026   0.361344709412   0.363160468189   0.364844718362   
      0.366392912334   0.367801394534   0.369067260039   0.370188226785   0.371162523306   
      0.371988792628   0.372666012048   0.373193427954   0.373570504627   0.373796885843   
      0.377013692293   0.376939263437   0.376716036754   0.376344196844   0.375824068007   
      0.375156139792   0.374341103895   0.373379903452   0.372273795874   0.371024430377   
      0.369633941114   0.36810505632   0.366441223078   0.364646746066   0.362726937081   
      0.360688270133   0.358538534679   0.356286977294   0.35394442001   0.351523342196   
      0.349037912513   0.346503958643   0.343938865385   0.341361396364   0.33879144069   
      0.336249692847   0.333757280868   0.33133536356   0.329004721093   0.326785364076   
      0.324696184149   0.322754664301   0.32097666052   0.319376258828   0.31796570444   
      0.316755393583   0.315753913971   0.31496811746   0.314403207782   0.314062827384   
      0.313949129813   0.314062827384   0.314403207782   0.31496811746   0.315753913971   
      0.316755393583   0.31796570444   0.319376258828   0.32097666052   0.322754664301   
      0.324696184149   0.326785364076   0.329004721093   0.33133536356   0.333757280868   
      0.336249692847   0.33879144069   0.341361396364   0.343938865385   0.346503958643   
      0.349037912513   0.351523342196   0.35394442001   0.356286977294   0.358538534679   
      0.360688270133   0.362726937081   0.364646746066   0.366441223078   0.36810505632   
      0.369633941114   0.371024430377   0.372273795874   0.373379903452   0.374341103895   
      0.375156139792   0.375824068007   0.376344196844   0.376716036754   0.376939263437   
      0.383453440333   0.383381306207   0.383164951796   0.382804525546   0.382300290201   
      0.381652646362   0.3808621666   0.379929641127   0.378856136214   0.377643066559   
      0.376292282661   0.374806173852   0.373187786963   0.37144095954   0.369570465127   
      0.367582166306   0.365483169127   0.363281970339   0.360988586743   0.35861465438   
      0.356173484542   0.35368006409   0.351150989703   0.348604329392   0.346059409927   
      0.343536535058   0.34105664598   0.338640941299   0.336310478012   0.334085776914   
      0.331986455037   0.330030904376   0.328236030718   0.326617059763   0.32518741088   
      0.323958632607   0.322940389192   0.32214048434   0.321564907089   0.321217885173   
      0.321101933109   0.321217885173   0.321564907089   0.32214048434   0.322940389192   
      0.323958632607   0.32518741088   0.326617059763   0.328236030718   0.330030904376   
      0.331986455037   0.334085776914   0.336310478012   0.338640941299   0.34105664598   
      0.343536535058   0.346059409927   0.348604329392   0.351150989703   0.35368006409   
      0.356173484542   0.35861465438   0.360988586743   0.363281970339   0.365483169127   
      0.367582166306   0.369570465127   0.37144095954   0.373187786963   0.374806173852   
      0.376292282661   0.377643066559   0.378856136214   0.379929641127   0.3808621666   
      0.381652646362   0.382300290201   0.382804525546   0.383164951796   0.383381306207   
      0.393427435606   0.39335920336   0.393154537912   0.392813537154   0.392336377801   
      0.391723336271   0.390974818985   0.390091403071   0.389073888662   0.387923364023   
      0.386641284715   0.385229567704   0.383690700836   0.382027867244   0.380245083105   
      0.378347345613   0.376340786189   0.374232821902   0.372032296   0.36974959664   
      0.36739674175   0.36498741769   0.362536960506   0.36006227113   0.357581659906   
      0.355114621076   0.352681543723   0.350303371406   0.348001227532   0.345796026607   
      0.343708092375   0.341756802425   0.339960275244   0.3383351106   0.336896188299   
      0.335656524557   0.334627180301   0.333817212015   0.333233653709   0.332881518167   
      0.332763806605   0.332881518167   0.333233653709   0.333817212015   0.334627180301   
      0.335656524557   0.336896188299   0.3383351106   0.339960275244   0.341756802425   
      0.343708092375   0.345796026607   0.348001227532   0.350303371406   0.352681543723   
      0.355114621076   0.357581659906   0.36006227113   0.362536960506   0.36498741769   
      0.36739674175   0.36974959664   0.372032296   0.374232821902   0.376340786189   
      0.378347345613   0.380245083105   0.382027867244   0.383690700836   0.385229567704   
      0.386641284715   0.387923364023   0.389073888662   0.390091403071   0.390974818985   
      0.391723336271   0.392336377801   0.392813537154   0.393154537912   0.39335920336   
      0.407135339522   0.407073093831   0.406886368808   0.406575203993   0.406139676729   
      0.405579919825   0.404896147251   0.40408868882   0.403158034954   0.402104892824   
      0.400930255104   0.399635482497   0.398222400831   0.396693412918   0.395051624529   
      0.393300982555   0.391446421937   0.389494016128   0.387451123922   0.385326523623   
      0.383130524003   0.380875040605   0.378573626054   0.376241444295   0.373895181301   
      0.371552888633   0.369233760981   0.366957853994   0.364745753614   0.362618212091   
      0.360595768322   0.35869837075   0.3569450197   0.355353443087   0.353939815226   
      0.352718523867   0.351701986037   0.350900509472   0.350322193793   0.349972864172   
      0.349856030245   0.349972864172   0.350322193793   0.350900509472   0.351701986037   
      0.352718523867   0.353939815226   0.355353443087   0.3569450197   0.35869837075   
      0.360595768322   0.362618212091   0.364745753614   0.366957853994   0.369233760981   
      0.371552888633   0.373895181301   0.376241444295   0.378573626054   0.380875040605   
      0.383130524003   0.385326523623   0.387451123922   0.389494016128   0.391446421937   
      0.393300982555   0.395051624529   0.396693412918   0.398222400831   0.399635482497   
      0.400930255104   0.402104892824   0.403158034954   0.40408868882   0.404896147251   
      0.405579919825   0.406139676729   0.406575203993   0.406886368808   0.407073093831   
      0.424488952387   0.424435019694   0.424273216084   0.424003527642   0.423625940229   