<?xml version="1.0"?>
<VTKFile type="ImageData" version="0.1" byte_order="LittleEndian">
  <ImageData WholeExtent="0 79 0 19 0 19" Origin="0 0 0" Spacing="1 1 1">
  <Piece Extent="0 79 0 19 0 19">
    <PointData Scalars="density">
       <DataArray type="Float32" Name="bluedensity" NumberOfComponents="1" format="ascii">
      0   0   0   0   0   
      0   0   0   0   0   
      0   0   0   0   0   
      0   0   0   0   0   
      0   0   0   0   0   
      0   0   0   0   0   
      0   0   0   0   0   
      0   0   0   0   0   
      0   0   0   0   0   
      0   0   0   0   0   
      0   0   0   0   0   
      0   0   0   0   0   
      0   0   0   0   0   
      0   0   0   0   0   
      0   0   0   0   0   
      0   0   0   0   0   
      0   0   0   0   0   
      0   0   0   0   0   
      0   0   0   0   0   
      0   0   0   0   0   
      0   0   0   0   0   
      0   0   0   0   0   
      0   0   0   0   0   
      0   0   0   0   0   
      0   0   0   0   0   
      0   0   0   0   0   
      0   0   0   0   0   
      0   0   0   0   0   
      0   0   0   0   0   
      0   0   0   0   0   
      0   0   0   0   0   
      0   0   0   0   0   
      0   0   0   0   0   
      0   0   0   0   0   
      0   0   0   0   0   
      0   0   0   0   0   
      0   0   0   0   0   
      0   0   0   0   0   
      0   0   0   0   0   
      0   0   0   0   0   
      0   0   0   0   0   
      0   0   0   0   0   
      0   0   0   0   0   
      0   0   0   0   0   
      0   0   0   0   0   
      0   0   0   0   0   
      0   0   0   0   0   
      0   0   0   0   0   
      0   0   0   0   0   
      0   0   0   0   0   
      0   0   0   0   0   
      0   0   0   0   0   
      0   0   0   0   0   
      0   0   0   0   0   
      0   0   0   0   0   
      0   0   0   0   0   
      0   0   0   0   0   
      0   0   0   0   0   
      0   0   0   0   0   
      0   0   0   0   0   
      0   0   0   0   0   
      0   0   0   0   0   
      0   0   0   0   0   
      0   0   0   0   0   
      0   0   0   0   0   
      0   0   0   0   0   
      0   0   0   0   0   
      0   0   0   0   0   
      0   0   0   0   0   
      0   0   0   0   0   
      0   0   0   0   0   
      0   0   0   0   0   
      0   0   0   0   0   
      0   0   0   0   0   
      0   0   0   0   0   
      0   0   0   0   0   
      0   0   0   0   0   
      0   0   0   0   0   
      0   0   0   0   0   
      0   0   0   0   0   
      0   0   0   0   0   
      0   0   0   0   0   
      0   0   0   0   0   
      0   0   0   0   0   
      0   0   0   0   0   
      0   0   0   0   0   
      0   0   0   0   0   
      0   0   0   0   0   
      0   0   0   0   0   
      0   0   0   0   0   
      0   0   0   0   0   
      0   0   0   0   0   
      0   0   0   0   0   
      0   0   0   0   0   
      0   0   0   0   0   
      0   0   0   0   0   
      0   0   0   0   0   
      0   0   0   0   0   
      0   0   0   0   0   
      0   0   0   0   0   
      0   0   0   0   0   
      0   0   0   0   0   
      0   0   0   0   0   
      0   0   0   0   0   
      0   0   0   0   0   
      0   0   0   0   0   
      0   0   0   0   0   
      0   0   0   0   0   
      0   0   0   0   0   
      0   0   0   0   0   
      0   0   0   0   0   
      0   0   0   0   0   
      0   0   0   0   0   
      0   0   0   0   0   
      0   0   0   0   0   
      0   0   0   0   0   
      0   0   0   0   0   
      0   0   0   0   0   
      0   0   0   0   0   
      0   0   0   0   0   
      0   0   0   0   0   
      0   0   0   0   0   
      0   0   0   0   0   
      0   0   0   0   0   
      0   0   0   0   0   
      0   0   0   0   0   
      0   0   0   0   0   
      0   0   0   0   0   
      0   0   0   0   0   
      0   0   0   0   0   
      0   0   0   0   0   
      0   0   0   0   0   
      0   0   0   0   0   
      0   0   0   0   0   
      0   0   0   0   0   
      0   0   0   0   0   
      0   0   0   0   0   
      0   0   0   0   0   
      0   0   0   0   0   
      0   0   0   0   0   
      0   0   0   0   0   
      0   0   0   0   0   
      0   0   0   0   0   
      0   0   0   0   0   
      0   0   0   0   0   
      0   0   0   0   0   
      0   0   0   0   0   
      0   0   0   0   0   
      0   0   0   0   0   
      0   0   0   0   0   
      0   0   0   0   0   
      0   0   0   0   0   
      0   0   0   0   0   
      0   0   0   0   0   
      0   0   0   0   0   
      0   0   0   0   0   
      0   0   0   0   0   
      0   0   0   0   0   
      0   0   0   0   0   
      0   0   0   0   0   
      0   0   0   0   0   
      0   0   0   0   0   
      0   0   0   0   0   
      0   0   0   0   0   
      0   0   0   0   0   
      0   0   0   0   0   
      0   0   0   0   0   
      0   0   0   0   0   
      0   0   0   0   0   
      0   0   0   0   0   
      0   0   0   0   0   
      0   0   0   0   0   
      0   0   0   0   0   
      0   0   0   0   0   
      0   0   0   0   0   
      0   0   0   0   0   
      0   0   0   0   0   
      0   0   0   0   0   
      0   0   0   0   0   
      0   0   0   0   0   
      0   0   0   0   0   
      0   0   0   0   0   
      0   0   0   0   0   
      0   0   0   0   0   
      0   0   0   0   0   
      0   0   0   0   0   
      0   0   0   0   0   
      0   0   0   0   0   
      0   0   0   0   0   
      0   0   0   0   0   
      0   0   0   0   0   
      0   0   0   0   0   
      0   0   0   0   0   
      0   0   0   0   0   
      0   0   0   0   0   
      0   0   0   0   0   
      0   0   0   0   0   
      0   0   0   0   0   
      0   0   0   0   0   
      0   0   0   0   0   
      0   0   0   0   0   
      0   0   0   0   0   
      0   0   0   0   0   
      0   0   0   0   0   
      0   0   0   0   0   
      0   0   0   0   0   
      0   0   0   0   0   
      0   0   0   0   0   
      0   0   0   0   0   
      0   0   0   0   0   
      0   0   0   0   0   
      0   0   0   0   0   
      0   0   0   0   0   
      0   0   0   0   0   
      0   0   0   0   0   
      0   0   0   0   0   
      0   0   0   0   0   
      0   0   0   0   0   
      0   0   0   0   0   
      0   0   0   0   0   
      0   0   0   0   0   
      0   0   0   0   0   
      0   0   0   0   0   
      0   0   0   0   0   
      0   0   0   0   0   
      0   0   0   0   0   
      0   0   0   0   0   
      0   0   0   0   0   
      0   0   0   0   0   
      0   0   0   0   0   
      0   0   0   0   0   
      0   0   0   0   0   
      0   0   0   0   0   
      0   0   0   0   0   
      0   0   0   0   0   
      0   0   0   0   0   
      0   0   0   0   0   
      0   0   0   0   0   
      0   0   0   0   0   
      0   0   0   0   0   
      0   0   0   0   0   
      0   0   0   0   0   
      0   0   0   0   0   
      0   0   0   0   0   
      0   0   0   0   0   
      0   0   0   0   0   
      0   0   0   0   0   
      0   0   0   0   0   
      0   0   0   0   0   
      0   0   0   0   0   
      0   0   0   0   0   
      0   0   0   0   0   
      0   0   0   0   0   
      0   0   0   0   0   
      0   0   0   0   0   
      0   0   0   0   0   
      0   0   0   0   0   
      0   0   0   0   0   
      0   0   0   0   0   
      0   0   0   0   0   
      0   0   0   0   0   
      0   0   0   0   0   
      0   0   0   0   0   
      0   0   0   0   0   
      0   0   0   0   0   
      0   0   0   0   0   
      0   0   0   0   0   
      0   0   0   0   0   
      0   0   0   0   0   
      0   0   0   0   0   
      0   0   0   0   0   
      0   0   0   0   0   
      0   0   0   0   0   
      0   0   0   0   0   
      0   0   0   0   0   
      0   0   0   0   0   
      0   0   0   0   0   
      0   0   0   0   0   
      0   0   0   0   0   
      0   0   0   0   0   
      0   0   0   0   0   
      0   0   0   0   0   
      0   0   0   0   0   
      0   0   0   0   0   
      0   0   0   0   0   
      0   0   0   0   0   
      0   0   0   0   0   
      0   0   0   0   0   
      0   0   0   0   0   
      0   0   0   0   0   
      0   0   0   0   0   
      0   0   0   0   0   
      0   0   0   0   0   
      0   0   0   0   0   
      0   0   0   0   0   
      0   0   0   0   0   
      0   0   0   0   0   
      0   0   0   0   0   
      0   0   0   0   0   
      0   0   0   0   0   
      0   0   0   0   0   
      0   0   0   0   0   
      0   0   0   0   0   
      0   0   0   0   0   
      0   0   0   0   0   
      0   0   0   0   0   
      0   0   0   0   0   
      0   0   0   0   0   
      0   0   0   0   0   
      0   0   0   0   0   
      0   0   0   0   0   
      0   0   0   0   0   
      0   0   0   0   0   
      0   0   0   0   0   
      0   0   0   0   0   
      0   0   0   0   0   
      0   0   0   0   0   
      0   0   0   0   0   
      0   0   0   0   0   
      0   0   0   0   0   
      0   0   0   0   0   
      0   0   0   0   0   
      0   0   0   0   0   
      0   0   0   0   0   
      0   0   0   0   0   
      0   0   0   0   0   
      0   0   0   0   0   
      0   0   0   0   0   
      0   0   0   0   0   
      0   0   0   0   0   
      0   0   0   0   0   
      0   0   0   0   0   
      0   0   0   0   0   
      0   0   0   0   0   
      0   0   0   0   0   
      0   0   0   0   0   
      0.571117095258   0.571111138412   0.571093295024   0.571063646581   0.571022328986   
      0.570969532692   0.570905502866   0.570830539554   0.570744997842   0.570649287952   
      0.570543875254   0.570429280142   0.570306077724   0.570174897272   0.570036421377   
      0.569891384753   0.569740572621   0.569584818617   0.569425002173   0.569262045309   
      0.569096908795   0.568930587649   0.568764105937   0.568598510875   0.568434866229   
      0.568274245038   0.568117721713   0.567966363557   0.567821221801   0.567683322271   
      0.567553655781   0.567433168427   0.567322751911   0.567223234079   0.567135369834   
      0.56705983261   0.566997206561   0.566947979653   0.566912537775   0.566891160026   
      0.56688401527   0.566891160026   0.566912537775   0.566947979653   0.566997206561   
      0.56705983261   0.567135369834   0.567223234079   0.567322751911   0.567433168427   
      0.567553655781   0.567683322271   0.567821221801   0.567966363557   0.568117721713   
      0.568274245038   0.568434866229   0.568598510875   0.568764105937   0.568930587649   
      0.569096908795   0.569262045309   0.569425002173   0.569584818617   0.569740572621   
      0.569891384753   0.570036421377   0.570174897272   0.570306077724   0.570429280142   
      0.570543875254   0.570649287952   0.570744997842   0.570830539554   0.570905502866   
      0.570969532692   0.571022328986   0.571063646581   0.571093295024   0.571111138412   
      0.458390881106   0.458382614896   0.458357853963   0.458316711437   0.45825937601   
      0.45818611213   0.458097260249   0.457993237075   0.457874535811   0.457741726312   
      0.45759545512   0.457436445303   0.457265496024   0.457083481776   0.456891351197   
      0.45669012537   0.456480895544   0.456264820178   0.456043121236   0.455817079658   
      0.455588029953   0.455357353858   0.455126473036   0.454896840808   0.454669932919   
      0.454447237386   0.454230243484   0.454020429973   0.45381925267   0.453628131533   
      0.453448437409   0.453281478662   0.453128487873   0.452990608862   0.452868884244   
      0.452764243768   0.452677493661   0.4526093072   0.452560216697   0.452530607088   
      0.452520711238   0.452530607088   0.452560216697   0.4526093072   0.452677493661   
      0.452764243768   0.452868884244   0.452990608862   0.453128487873   0.453281478662   
      0.453448437409   0.453628131533   0.45381925267   0.454020429973   0.454230243484   
      0.454447237386   0.454669932919   0.454896840808   0.455126473036   0.455357353858   
      0.455588029953   0.455817079658   0.456043121236   0.456264820178   0.456480895544   
      0.45669012537   0.456891351197   0.457083481776   0.457265496024   0.457436445303   
      0.45759545512   0.457741726312   0.457874535811   0.457993237075   0.458097260249   
      0.45818611213   0.45825937601   0.458316711437   0.458357853963   0.458382614896   
      0.43256111923   0.432550471517   0.432518577736   0.432465586008   0.432391743335   
      0.432297395774   0.432182988648   0.432049066743   0.431896274442   0.431725355738   
      0.431537154041   0.43133261172   0.431112769262   0.430878763977   0.430631828137   
      0.430373286444   0.430104552733   0.429827125809   0.429542584318   0.429252580585   
      0.428958833339   0.428663119287   0.428367263498   0.42807312861   0.427782602874   
      0.427497587102   0.427219980606   0.42695166625   0.426694494778   0.4264502686   
      0.426220725247   0.426007520754   0.425812213208   0.425636246745   0.425480936274   
      0.425347453203   0.42523681244   0.425149860905   0.425087267804   0.425049516847   
      0.425036900562   0.425049516847   0.425087267804   0.425149860905   0.42523681244   
      0.425347453203   0.425480936274   0.425636246745   0.425812213208   0.426007520754   
      0.426220725247   0.4264502686   0.426694494778   0.42695166625   0.427219980606   
      0.427497587102   0.427782602874   0.42807312861   0.428367263498   0.428663119287   
      0.428958833339   0.429252580585   0.429542584318   0.429827125809   0.430104552733   
      0.430373286444   0.430631828137   0.430878763977   0.431112769262   0.43133261172   
      0.431537154041   0.431725355738   0.431896274442   0.432049066743   0.432182988648   
      0.432297395774   0.432391743335   0.432465586008   0.432518577736   0.432550471517   
      0.406985476889   0.406972507093   0.406933659194   0.406869117687   0.406779190133   
      0.406664307237   0.406525022913   0.406362014273   0.406176081497   0.405968147491   
      0.405739257256   0.405490576876   0.405223392004   0.404939105763   0.404639235909   
      0.404325411186   0.403999366715   0.403662938346   0.403318055859   0.402966734929   
      0.402611067805   0.402253212653   0.401895381551   0.401539827153   0.401188828072   
      0.400844673067   0.400509644156   0.400185998802   0.399875951385   0.399581654153   
      0.399305177931   0.399048492839   0.398813449328   0.398601759826   0.398414981291   
      0.398254498992   0.398121511777   0.398017019116   0.397941810147   0.397896454933   
      0.397881298093   0.397896454933   0.397941810147   0.398017019116   0.398121511777   
      0.398254498992   0.398414981291   0.398601759826   0.398813449328   0.399048492839   
      0.399305177931   0.399581654153   0.399875951385   0.400185998802   0.400509644156   
      0.400844673067   0.401188828072   0.401539827153   0.401895381551   0.402253212653   
      0.402611067805   0.402966734929   0.403318055859   0.403662938346   0.403999366715   
      0.404325411186   0.404639235909   0.404939105763   0.405223392004   0.405490576876   
      0.405739257256   0.405968147491   0.406176081497   0.406362014273   0.406525022913   
      0.406664307237   0.406779190133   0.406869117687   0.406933659194   0.406972507093   
      0.386958377866   0.386943710443   0.386899779383   0.386826798314   0.386725123244   
      0.386595252478   0.38643782645   0.386253627404   0.386043578871   0.385808744842   
      0.385550328559   0.385269670812   0.384968247628   0.384647667237   0.384309666201   
      0.383956104575   0.38358896   0.383210320613   0.382822376691   0.382427410956   
      0.382027787483   0.3816259392   0.381224353973   0.380825559333   0.380432105896   
      0.380046549614   0.379671432984   0.379309265405   0.378962502898   0.378633527436   
      0.378324626142   0.378037970655   0.377775596953   0.377539385936   0.377331045086   
      0.377152091478   0.377003836429   0.376887372048   0.376803559893   0.376753021947   
      0.376736134056   0.376753021947   0.376803559893   0.376887372048   0.377003836429   
      0.377152091478   0.377331045086   0.377539385936   0.377775596953   0.378037970655   
      0.378324626142   0.378633527436   0.378962502898   0.379309265405   0.379671432984   
      0.380046549614   0.380432105896   0.380825559333   0.381224353973   0.3816259392   
      0.382027787483   0.382427410956   0.382822376691   0.383210320613   0.38358896   
      0.383956104575   0.384309666201   0.384647667237   0.384968247628   0.385269670812   
      0.385550328559   0.385808744842   0.386043578871   0.386253627404   0.38643782645   
      0.386595252478   0.386725123244   0.386826798314   0.386899779383   0.386943710443   
      0.371377091169   0.371361312404   0.371314054393   0.371235551945   0.371126196254   
      0.370986534633   0.370817270088   0.370619260667   0.370393518515   0.370141208545   
      0.369863646637   0.369562297238   0.369238770274   0.368894817236   0.368532326326   
      0.368153316557   0.367759930688   0.367354426909   0.366939169183   0.36651661621   
      0.366089308957   0.36565985677   0.365230922083   0.364805203796   0.364385419417   
      0.363974286107   0.363574500781   0.363188719491   0.362819536296   0.362469461889   
      0.362140902243   0.361836137565   0.361557301855   0.36130636335   0.361085106144   
      0.360895113258   0.360737751412   0.360614157717   0.360525228511   0.360471610488   
      0.360453694267   0.360471610488   0.360525228511   0.360614157717   0.360737751412   
      0.360895113258   0.361085106144   0.36130636335   0.361557301855   0.361836137565   
      0.362140902243   0.362469461889   0.362819536296   0.363188719491   0.363574500781   
      0.363974286107   0.364385419417   0.364805203796   0.365230922083   0.36565985677   
      0.366089308957   0.36651661621   0.366939169183   0.367354426909   0.367759930688   
      0.368153316557   0.368532326326   0.368894817236   0.369238770274   0.369562297238   
      0.369863646637   0.370141208545   0.370393518515   0.370619260667   0.370817270088   
      0.370986534633   0.371126196254   0.371235551945   0.371314054393   0.371361312404   
      0.36021772738   0.36020130149   0.360152106779   0.360070392051   0.359956571714   
      0.359811225353   0.359635097071   0.359429094542   0.359194287691   0.358931906927   
      0.358643340819   0.358330133121   0.35799397901   0.357636720448   0.357260340532   
      0.356866956737   0.356458812944   0.356038270183   0.355607796001   0.355169952442   
      0.354727382608   0.354282795817   0.353838951412   0.353398641306   0.352964671376   
      0.352539841854   0.352126926914   0.351728653647   0.35134768068   0.350986576675   
      0.350647798994   0.350333672797   0.350046370847   0.349787894307   0.349560054773   
      0.349364457807   0.349202488175   0.349075297014   0.348983791079   0.348928624232   
      0.348910191276   0.348928624232   0.348983791079   0.349075297014   0.349202488175   
      0.349364457807   0.349560054773   0.349787894307   0.350046370847   0.350333672797   
      0.350647798994   0.350986576675   0.35134768068   0.351728653647   0.352126926914   
      0.352539841854   0.352964671376   0.353398641306   0.353838951412   0.354282795817   
      0.354727382608   0.355169952442   0.355607796001   0.356038270183   0.356458812944   
      0.356866956737   0.357260340532   0.357636720448   0.35799397901   0.358330133121   
      0.358643340819   0.358931906927   0.359194287691   0.359429094542   0.359635097071   
      0.359811225353   0.359956571714   0.360070392051   0.360152106779   0.36020130149   
      0.353100834451   0.353084070541   0.353033864559   0.352950473654   0.352834326057   
      0.35268602054   0.352506325577   0.352296178178   0.352056682296   0.351789106739   
      0.351494882466   0.351175599187   0.350833001134   0.3504689819   0.350085578231   
      0.349684962682   0.349269435022   0.348841412336   0.348403417763   0.347958067831   
      0.347508058408   0.347056149276   0.346605147414   0.346157889075   0.345717220787   
      0.34528597945   0.344866971721   0.34446295289   0.344076605509   0.343710518012   
      0.343367163595   0.343048879619   0.342757847802   0.34249607546   0.342265378025   
      0.342067363076   0.341903416077   0.341774688006   0.34168208502   0.341626260292   
      0.341607608107   0.341626260292   0.34168208502   0.341774688006   0.341903416077   
      0.342067363076   0.342265378025   0.34249607546   0.342757847802   0.343048879619   
      0.343367163595   0.343710518012   0.344076605509   0.34446295289   0.344866971721   
      0.34528597945   0.345717220787   0.346157889075   0.346605147414   0.347056149276   
      0.347508058408   0.347958067831   0.348403417763   0.348841412336   0.349269435022   
      0.349684962682   0.350085578231   0.3504689819   0.350833001134   0.351175599187   
      0.351494882466   0.351789106739   0.352056682296   0.352296178178   0.352506325577   
      0.35268602054   0.352834326057   0.352950473654   0.353033864559   0.353084070541   
      0.349655626258   0.349638721732   0.349588095197   0.349504007669   0.349386893787   
      0.349237361197   0.349056189631   0.348844329616   0.348602900741   0.348333189393   
      0.348036645864   0.347714880724   0.347369660343   0.347002901467   0.346616664725   
      0.346213146975   0.345794672401   0.345363682297   0.344922723482   0.344474435332   
      0.344021535424   0.343566803848   0.343113066241   0.342663175659   0.342219993423   
      0.341786369103   0.341365119843   0.340959009253   0.340570726087   0.340202862987   
      0.339857895528   0.339538161844   0.339245843075   0.338982944887   0.338751280298   
      0.338552454016   0.338387848472   0.338258611734   0.338165647416   0.338109606722   
      0.338090882691   0.338109606722   0.338165647416   0.338258611734   0.338387848472   
      0.338552454016   0.338751280298   0.338982944887   0.339245843075   0.339538161844   
      0.339857895528   0.340202862987   0.340570726087   0.340959009253   0.341365119843   
      0.341786369103   0.342219993423   0.342663175659   0.343113066241   0.343566803848   
      0.344021535424   0.344474435332   0.344922723482   0.345363682297   0.345794672401   
      0.346213146975   0.346616664725   0.347002901467   0.347369660343   0.347714880724   
      0.348036645864   0.348333189393   0.348602900741   0.348844329616   0.349056189631   
      0.349237361197   0.349386893787   0.349504007669   0.349588095197   0.349638721732   
      0.349655626258   0.349638721732   0.349588095197   0.349504007669   0.349386893787   
      0.349237361197   0.349056189631   0.348844329616   0.348602900741   0.348333189393   
      0.348036645864   0.347714880724   0.347369660343   0.347002901467   0.346616664725   
      0.346213146975   0.345794672401   0.345363682297   0.344922723482   0.344474435332   
      0.344021535424   0.343566803848   0.343113066241   0.342663175659   0.342219993423   
      0.341786369103   0.341365119843   0.340959009253   0.340570726087   0.340202862987   
      0.339857895528   0.339538161844   0.339245843075   0.338982944887   0.338751280298   
      0.338552454016   0.338387848472   0.338258611734   0.338165647416   0.338109606722   
      0.338090882691   0.338109606722   0.338165647416   0.338258611734   0.338387848472   
      0.338552454016   0.338751280298   0.338982944887   0.339245843075   0.339538161844   
      0.339857895528   0.340202862987   0.340570726087   0.340959009253   0.341365119843   
      0.341786369103   0.342219993423   0.342663175659   0.343113066241   0.343566803848   
      0.344021535424   0.344474435332   0.344922723482   0.345363682297   0.345794672401   
      0.346213146975   0.346616664725   0.347002901467   0.347369660343   0.347714880724   
      0.348036645864   0.348333189393   0.348602900741   0.348844329616   0.349056189631   
      0.349237361197   0.349386893787   0.349504007669   0.349588095197   0.349638721732   
      0.353100834451   0.353084070541   0.353033864559   0.352950473654   0.352834326057   
      0.35268602054   0.352506325577   0.352296178178   0.352056682296   0.351789106739   
      0.351494882466   0.351175599187   0.350833001134   0.3504689819   0.350085578231   
      0.349684962682   0.349269435022   0.348841412336   0.348403417763   0.347958067831   
      0.347508058408   0.347056149276   0.346605147414   0.346157889075   0.345717220787   
      0.34528597945   0.344866971721   0.34446295289   0.344076605509   0.343710518012   
      0.343367163595   0.343048879619   0.342757847802   0.34249607546   0.342265378025   
      0.342067363076   0.341903416077   0.341774688006   0.34168208502   0.341626260292   
      0.341607608107   0.341626260292   0.34168208502   0.341774688006   0.341903416077   
      0.342067363076   0.342265378025   0.34249607546   0.342757847802   0.343048879619   
      0.343367163595   0.343710518012   0.344076605509   0.34446295289   0.344866971721   
      0.34528597945   0.345717220787   0.346157889075   0.346605147414   0.347056149276   
      0.347508058408   0.347958067831   0.348403417763   0.348841412336   0.349269435022   
      0.349684962682   0.350085578231   0.3504689819   0.350833001134   0.351175599187   
      0.351494882466   0.351789106739   0.352056682296   0.352296178178   0.352506325577   
      0.35268602054   0.352834326057   0.352950473654   0.353033864559   0.353084070541   
      0.36021772738   0.36020130149   0.360152106779   0.360070392051   0.359956571714   
      0.359811225353   0.359635097071   0.359429094542   0.359194287691   0.358931906927   
      0.358643340819   0.358330133121   0.35799397901   0.357636720448   0.357260340532   
      0.356866956737   0.356458812944   0.356038270183   0.355607796001   0.355169952442   
      0.354727382608   0.354282795817   0.353838951412   0.353398641306   0.352964671376   
      0.352539841854   0.352126926914   0.351728653647   0.35134768068   0.350986576675   
      0.350647798994   0.350333672797   0.350046370847   0.349787894307   0.349560054773   
      0.349364457807   0.349202488175   0.349075297014   0.348983791079   0.348928624232   
      0.348910191276   0.348928624232   0.348983791079   0.349075297014   0.349202488175   
      0.349364457807   0.349560054773   0.349787894307   0.350046370847   0.350333672797   
      0.350647798994   0.350986576675   0.35134768068   0.351728653647   0.352126926914   
      0.352539841854   0.352964671376   0.353398641306   0.353838951412   0.354282795817   
      0.354727382608   0.355169952442   0.355607796001   0.356038270183   0.356458812944   
      0.356866956737   0.357260340532   0.357636720448   0.35799397901   0.358330133121   
      0.358643340819   0.358931906927   0.359194287691   0.359429094542   0.359635097071   
      0.359811225353   0.359956571714   0.360070392051   0.360152106779   0.36020130149   
      0.371377091169   0.371361312404   0.371314054393   0.371235551945   0.371126196254   
      0.370986534633   0.370817270088   0.370619260667   0.370393518515   0.370141208545   
      0.369863646637   0.369562297238   0.369238770274   0.368894817236   0.368532326326   
      0.368153316557   0.367759930688   0.367354426909   0.366939169183   0.36651661621   
      0.366089308957   0.36565985677   0.365230922083   0.364805203796   0.364385419417   
      0.363974286107   0.363574500781   0.363188719491   0.362819536296   0.362469461889   
      0.362140902243   0.361836137565   0.361557301855   0.36130636335   0.361085106144   
      0.360895113258   0.360737751412   0.360614157717   0.360525228511   0.360471610488   
      0.360453694267   0.360471610488   0.360525228511   0.360614157717   0.360737751412   
      0.360895113258   0.361085106144   0.36130636335   0.361557301855   0.361836137565   
      0.362140902243   0.362469461889   0.362819536296   0.363188719491   0.363574500781   
      0.363974286107   0.364385419417   0.364805203796   0.365230922083   0.36565985677   
      0.366089308957   0.36651661621   0.366939169183   0.367354426909   0.367759930688   
      0.368153316557   0.368532326326   0.368894817236   0.369238770274   0.369562297238   
      0.369863646637   0.370141208545   0.370393518515   0.370619260667   0.370817270088   
      0.370986534633   0.371126196254   0.371235551945   0.371314054393   0.371361312404   
      0.386958377866   0.386943710443   0.386899779383   0.386826798314   0.386725123244   
      0.386595252478   0.38643782645   0.386253627404   0.386043578871   0.385808744842   
      0.385550328559   0.385269670812   0.384968247628   0.384647667237   0.384309666201   
      0.383956104575   0.38358896   0.383210320613   0.382822376691   0.382427410956   
      0.382027787483   0.3816259392   0.381224353973   0.380825559333   0.380432105896   
      0.380046549614   0.379671432984   0.379309265405   0.378962502898   0.378633527436   
      0.378324626142   0.378037970655   0.377775596953   0.377539385936   0.377331045086   
      0.377152091478   0.377003836429   0.376887372048   0.376803559893   0.376753021947   
      0.376736134056   0.376753021947   0.376803559893   0.376887372048   0.377003836429   
      0.377152091478   0.377331045086   0.377539385936   0.377775596953   0.378037970655   
      0.378324626142   0.378633527436   0.378962502898   0.379309265405   0.379671432984   
      0.380046549614   0.380432105896   0.380825559333   0.381224353973   0.3816259392   
      0.382027787483   0.382427410956   0.382822376691   0.383210320613   0.38358896   
      0.383956104575   0.384309666201   0.384647667237   0.384968247628   0.385269670812   
      0.385550328559   0.385808744842   0.386043578871   0.386253627404   0.38643782645   
      0.386595252478   0.386725123244   0.386826798314   0.386899779383   0.386943710443   
      0.406985476889   0.406972507093   0.406933659194   0.406869117687   0.406779190133   