<?xml version="1.0"?>
<VTKFile type="ImageData" version="0.1" byte_order="LittleEndian">
  <ImageData WholeExtent="0 79 0 19 0 19" Origin="0 0 0" Spacing="1 1 1">
  <Piece Extent="0 79 0 19 0 19">
    <PointData Scalars="density">
       <DataArray type="Float32" Name="bluedensity" NumberOfComponents="1" format="ascii">
      0   0   0   0   0   
      0   0   0   0   0   
      0   0   0   0   0   
      0   0   0   0   0   
      0   0   0   0   0   
      0   0   0   0   0   
      0   0   0   0   0   
      0   0   0   0   0   
      0   0   0   0   0   
      0   0   0   0   0   
      0   0   0   0   0   
      0   0   0   0   0   
      0   0   0   0   0   
      0   0   0   0   0   
      0   0   0   0   0   
      0   0   0   0   0   
      0   0   0   0   0   
      0   0   0   0   0   
      0   0   0   0   0   
      0   0   0   0   0   
      0   0   0   0   0   
      0   0   0   0   0   
      0   0   0   0   0   
      0   0   0   0   0   
      0   0   0   0   0   
      0   0   0   0   0   
      0   0   0   0   0   
      0   0   0   0   0   
      0   0   0   0   0   
      0   0   0   0   0   
      0   0   0   0   0   
      0   0   0   0   0   
      0   0   0   0   0   
      0   0   0   0   0   
      0   0   0   0   0   
      0   0   0   0   0   
      0   0   0   0   0   
      0   0   0   0   0   
      0   0   0   0   0   
      0   0   0   0   0   
      0   0   0   0   0   
      0   0   0   0   0   
      0   0   0   0   0   
      0   0   0   0   0   
      0   0   0   0   0   
      0   0   0   0   0   
      0   0   0   0   0   
      0   0   0   0   0   
      0   0   0   0   0   
      0   0   0   0   0   
      0   0   0   0   0   
      0   0   0   0   0   
      0   0   0   0   0   
      0   0   0   0   0   
      0   0   0   0   0   
      0   0   0   0   0   
      0   0   0   0   0   
      0   0   0   0   0   
      0   0   0   0   0   
      0   0   0   0   0   
      0   0   0   0   0   
      0   0   0   0   0   
      0   0   0   0   0   
      0   0   0   0   0   
      0   0   0   0   0   
      0   0   0   0   0   
      0   0   0   0   0   
      0   0   0   0   0   
      0   0   0   0   0   
      0   0   0   0   0   
      0   0   0   0   0   
      0   0   0   0   0   
      0   0   0   0   0   
      0   0   0   0   0   
      0   0   0   0   0   
      0   0   0   0   0   
      0   0   0   0   0   
      0   0   0   0   0   
      0   0   0   0   0   
      0   0   0   0   0   
      0   0   0   0   0   
      0   0   0   0   0   
      0   0   0   0   0   
      0   0   0   0   0   
      0   0   0   0   0   
      0   0   0   0   0   
      0   0   0   0   0   
      0   0   0   0   0   
      0   0   0   0   0   
      0   0   0   0   0   
      0   0   0   0   0   
      0   0   0   0   0   
      0   0   0   0   0   
      0   0   0   0   0   
      0   0   0   0   0   
      0   0   0   0   0   
      0   0   0   0   0   
      0   0   0   0   0   
      0   0   0   0   0   
      0   0   0   0   0   
      0   0   0   0   0   
      0   0   0   0   0   
      0   0   0   0   0   
      0   0   0   0   0   
      0   0   0   0   0   
      0   0   0   0   0   
      0   0   0   0   0   
      0   0   0   0   0   
      0   0   0   0   0   
      0   0   0   0   0   
      0   0   0   0   0   
      0   0   0   0   0   
      0   0   0   0   0   
      0   0   0   0   0   
      0   0   0   0   0   
      0   0   0   0   0   
      0   0   0   0   0   
      0   0   0   0   0   
      0   0   0   0   0   
      0   0   0   0   0   
      0   0   0   0   0   
      0   0   0   0   0   
      0   0   0   0   0   
      0   0   0   0   0   
      0   0   0   0   0   
      0   0   0   0   0   
      0   0   0   0   0   
      0   0   0   0   0   
      0   0   0   0   0   
      0   0   0   0   0   
      0   0   0   0   0   
      0   0   0   0   0   
      0   0   0   0   0   
      0   0   0   0   0   
      0   0   0   0   0   
      0   0   0   0   0   
      0   0   0   0   0   
      0   0   0   0   0   
      0   0   0   0   0   
      0   0   0   0   0   
      0   0   0   0   0   
      0   0   0   0   0   
      0   0   0   0   0   
      0   0   0   0   0   
      0   0   0   0   0   
      0   0   0   0   0   
      0   0   0   0   0   
      0   0   0   0   0   
      0   0   0   0   0   
      0   0   0   0   0   
      0   0   0   0   0   
      0   0   0   0   0   
      0   0   0   0   0   
      0   0   0   0   0   
      0   0   0   0   0   
      0   0   0   0   0   
      0   0   0   0   0   
      0   0   0   0   0   
      0   0   0   0   0   
      0   0   0   0   0   
      0   0   0   0   0   
      0   0   0   0   0   
      0   0   0   0   0   
      0   0   0   0   0   
      0   0   0   0   0   
      0   0   0   0   0   
      0   0   0   0   0   
      0   0   0   0   0   
      0   0   0   0   0   
      0   0   0   0   0   
      0   0   0   0   0   
      0   0   0   0   0   
      0   0   0   0   0   
      0   0   0   0   0   
      0   0   0   0   0   
      0   0   0   0   0   
      0   0   0   0   0   
      0   0   0   0   0   
      0   0   0   0   0   
      0   0   0   0   0   
      0   0   0   0   0   
      0   0   0   0   0   
      0   0   0   0   0   
      0   0   0   0   0   
      0   0   0   0   0   
      0   0   0   0   0   
      0   0   0   0   0   
      0   0   0   0   0   
      0   0   0   0   0   
      0   0   0   0   0   
      0   0   0   0   0   
      0   0   0   0   0   
      0   0   0   0   0   
      0   0   0   0   0   
      0   0   0   0   0   
      0   0   0   0   0   
      0   0   0   0   0   
      0   0   0   0   0   
      0   0   0   0   0   
      0   0   0   0   0   
      0   0   0   0   0   
      0   0   0   0   0   
      0   0   0   0   0   
      0   0   0   0   0   
      0   0   0   0   0   
      0   0   0   0   0   
      0   0   0   0   0   
      0   0   0   0   0   
      0   0   0   0   0   
      0   0   0   0   0   
      0   0   0   0   0   
      0   0   0   0   0   
      0   0   0   0   0   
      0   0   0   0   0   
      0   0   0   0   0   
      0   0   0   0   0   
      0   0   0   0   0   
      0   0   0   0   0   
      0   0   0   0   0   
      0   0   0   0   0   
      0   0   0   0   0   
      0   0   0   0   0   
      0   0   0   0   0   
      0   0   0   0   0   
      0   0   0   0   0   
      0   0   0   0   0   
      0   0   0   0   0   
      0   0   0   0   0   
      0   0   0   0   0   
      0   0   0   0   0   
      0   0   0   0   0   
      0   0   0   0   0   
      0   0   0   0   0   
      0   0   0   0   0   
      0   0   0   0   0   
      0   0   0   0   0   
      0   0   0   0   0   
      0   0   0   0   0   
      0   0   0   0   0   
      0   0   0   0   0   
      0   0   0   0   0   
      0   0   0   0   0   
      0   0   0   0   0   
      0   0   0   0   0   
      0   0   0   0   0   
      0   0   0   0   0   
      0   0   0   0   0   
      0   0   0   0   0   
      0   0   0   0   0   
      0   0   0   0   0   
      0   0   0   0   0   
      0   0   0   0   0   
      0   0   0   0   0   
      0   0   0   0   0   
      0   0   0   0   0   
      0   0   0   0   0   
      0   0   0   0   0   
      0   0   0   0   0   
      0   0   0   0   0   
      0   0   0   0   0   
      0   0   0   0   0   
      0   0   0   0   0   
      0   0   0   0   0   
      0   0   0   0   0   
      0   0   0   0   0   
      0   0   0   0   0   
      0   0   0   0   0   
      0   0   0   0   0   
      0   0   0   0   0   
      0   0   0   0   0   
      0   0   0   0   0   
      0   0   0   0   0   
      0   0   0   0   0   
      0   0   0   0   0   
      0   0   0   0   0   
      0   0   0   0   0   
      0   0   0   0   0   
      0   0   0   0   0   
      0   0   0   0   0   
      0   0   0   0   0   
      0   0   0   0   0   
      0   0   0   0   0   
      0   0   0   0   0   
      0   0   0   0   0   
      0   0   0   0   0   
      0   0   0   0   0   
      0   0   0   0   0   
      0   0   0   0   0   
      0   0   0   0   0   
      0   0   0   0   0   
      0   0   0   0   0   
      0   0   0   0   0   
      0   0   0   0   0   
      0   0   0   0   0   
      0   0   0   0   0   
      0   0   0   0   0   
      0   0   0   0   0   
      0   0   0   0   0   
      0   0   0   0   0   
      0   0   0   0   0   
      0   0   0   0   0   
      0   0   0   0   0   
      0   0   0   0   0   
      0   0   0   0   0   
      0   0   0   0   0   
      0   0   0   0   0   
      0   0   0   0   0   
      0   0   0   0   0   
      0   0   0   0   0   
      0   0   0   0   0   
      0   0   0   0   0   
      0   0   0   0   0   
      0   0   0   0   0   
      0   0   0   0   0   
      0   0   0   0   0   
      0   0   0   0   0   
      0   0   0   0   0   
      0   0   0   0   0   
      0   0   0   0   0   
      0   0   0   0   0   
      0   0   0   0   0   
      0   0   0   0   0   
      0   0   0   0   0   
      0   0   0   0   0   
      0   0   0   0   0   
      0   0   0   0   0   
      0   0   0   0   0   
      0   0   0   0   0   
      0   0   0   0   0   
      0   0   0   0   0   
      0   0   0   0   0   
      0   0   0   0   0   
      0   0   0   0   0   
      0   0   0   0   0   
      0   0   0   0   0   
      0   0   0   0   0   
      0.577560496286   0.577538526617   0.577472622818   0.57736280138   0.577209092689   
      0.577011545517   0.576770233546   0.576485264181   0.576156789973   0.575785022992   
      0.575370252588   0.57491286695   0.574413378891   0.573872456226   0.573290956992   
      0.572669969588   0.572010857652   0.571315309143   0.570585388653   0.56982359147   
      0.569032897367   0.568216821462   0.567379459035   0.566525520666   0.565660353861   
      0.564789947269   0.563920913857   0.56306045002   0.562216268497   0.561396504178   
      0.560609593315   0.559864128223   0.559168691083   0.55853167195   0.557961077245   
      0.557464335904   0.557048110845   0.556718123461   0.556478998498   0.556334135896   
      0.556285615092   0.556334135896   0.556478998498   0.556718123461   0.557048110845   
      0.557464335904   0.557961077245   0.55853167195   0.559168691083   0.559864128223   
      0.560609593315   0.561396504178   0.562216268497   0.56306045002   0.563920913857   
      0.564789947269   0.565660353861   0.566525520666   0.567379459035   0.568216821462   
      0.569032897367   0.56982359147   0.570585388653   0.571315309143   0.572010857652   
      0.572669969588   0.573290956992   0.573872456226   0.574413378891   0.57491286695   
      0.575370252588   0.575785022992   0.576156789973   0.576485264181   0.576770233546   
      0.577011545517   0.577209092689   0.57736280138   0.577472622818   0.577538526617   
      0.467583798739   0.467553458617   0.46746244039   0.467310751837   0.467098410506   
      0.466825450779   0.466491934121   0.466097962891   0.465643698133   0.465129381892   
      0.464555364596   0.463922138092   0.463230374839   0.462480973692   0.461675112471   
      0.460814307222   0.459900477654   0.4589360177   0.457923869491   0.456867598314   
      0.455771465347   0.454640494214   0.453480526785   0.452298263186   0.45110128085   
      0.449898027673   0.448697784978   0.447510597076   0.446347165698   0.445218709354   
      0.444136789636   0.443113108472   0.442159282155   0.44128659951   0.440505772659   
      0.439826689457   0.439258176787   0.438807783522   0.438481591166   0.43828405909   
      0.438217909912   0.43828405909   0.438481591166   0.438807783522   0.439258176787   
      0.439826689457   0.440505772659   0.44128659951   0.442159282155   0.443113108472   
      0.444136789636   0.445218709354   0.446347165698   0.447510597076   0.448697784978   
      0.449898027673   0.45110128085   0.452298263186   0.453480526785   0.454640494214   
      0.455771465347   0.456867598314   0.457923869491   0.4589360177   0.459900477654   
      0.460814307222   0.461675112471   0.462480973692   0.463230374839   0.463922138092   
      0.464555364596   0.465129381892   0.465643698133   0.466097962891   0.466491934121   
      0.466825450779   0.467098410506   0.467310751837   0.46746244039   0.467553458617   
      0.444655894099   0.444616421031   0.444498009879   0.444300686751   0.444024501742   
      0.443669539034   0.443235931507   0.44272388029   0.442133679808   0.441465748929   
      0.440720668852   0.439899228344   0.439002476819   0.43803178556   0.436988917019   
      0.435876101706   0.434696121547   0.433452397839   0.432149081102   0.430791139203   
      0.429384439218   0.427935817749   0.426453133835   0.4249452984   0.423422274424   
      0.421895042761   0.420375529829   0.418876495124   0.417411378651   0.415994110633   
      0.414638888133   0.413359925242   0.41217118504   0.411086102575   0.410117308457   
      0.409276362465   0.408573505801   0.408017439581   0.407615135786   0.407371685582   
      0.407290188599   0.407371685582   0.407615135786   0.408017439581   0.408573505801   
      0.409276362465   0.410117308457   0.411086102575   0.41217118504   0.413359925242   
      0.414638888133   0.415994110633   0.417411378651   0.418876495124   0.420375529829   
      0.421895042761   0.423422274424   0.4249452984   0.426453133835   0.427935817749   
      0.429384439218   0.430791139203   0.432149081102   0.433452397839   0.434696121547   
      0.435876101706   0.436988917019   0.43803178556   0.439002476819   0.439899228344   
      0.440720668852   0.441465748929   0.442133679808   0.44272388029   0.443235931507   
      0.443669539034   0.444024501742   0.444300686751   0.444498009879   0.444616421031   
      0.422007772868   0.421958910596   0.421812346012   0.421568148433   0.421226442185   
      0.420787420083   0.420251362838   0.41961866489   0.418889867286   0.418065698238   
      0.417147122008   0.416135396653   0.415032140954   0.413839410521   0.412559782553   
      0.411196448087   0.40975330973   0.408235081945   0.40664738989   0.404996861829   
      0.403291209203   0.401539287815   0.399751133342   0.397937964676   0.396112149479   
      0.394287127872   0.392477292271   0.390697823874   0.388964488968   0.387293400829   
      0.38570075512   0.384202548301   0.3828142893   0.381550714626   0.380425516329   
      0.379451090746   0.378638314252   0.377996350364   0.377532490834   0.377252032017   
      0.377158186811   0.377252032017   0.377532490834   0.377996350364   0.378638314252   
      0.379451090746   0.380425516329   0.381550714626   0.3828142893   0.384202548301   
      0.38570075512   0.387293400829   0.388964488968   0.390697823874   0.392477292271   
      0.394287127872   0.396112149479   0.397937964676   0.399751133342   0.401539287815   
      0.403291209203   0.404996861829   0.40664738989   0.408235081945   0.40975330973   
      0.411196448087   0.412559782553   0.413839410521   0.415032140954   0.416135396653   
      0.417147122008   0.418065698238   0.418889867286   0.41961866489   0.420251362838   
      0.420787420083   0.421226442185   0.421568148433   0.421812346012   0.421958910596   
      0.404234961423   0.404178699088   0.404009953795   0.403728853894   0.403335624082   
      0.402830601884   0.402214261292   0.401487244096   0.400650399516   0.399704832747   
      0.398651962965   0.397493591142   0.396231977697   0.394869929523   0.393410895231   
      0.391859066629   0.39021948343   0.38849813707   0.386702068402   0.384839453014   
      0.382919667173   0.380953327098   0.378952294517   0.376929642473   0.374899577002   
      0.372877312744   0.370878903338   0.36892103058   0.367020759204   0.36519526661   
      0.363461558448   0.361836181619   0.360334945757   0.358972662871   0.357762912665   
      0.356717838502   0.355847976379   0.355162116942   0.35466719882   0.354368230423   
      0.354268237044   0.354368230423   0.35466719882   0.355162116942   0.355847976379   
      0.356717838502   0.357762912665   0.358972662871   0.360334945757   0.361836181619   
      0.363461558448   0.36519526661   0.367020759204   0.36892103058   0.370878903338   
      0.372877312744   0.374899577002   0.376929642473   0.378952294517   0.380953327098   
      0.382919667173   0.384839453014   0.386702068402   0.38849813707   0.39021948343   
      0.391859066629   0.393410895231   0.394869929523   0.396231977697   0.397493591142   
      0.398651962965   0.399704832747   0.400650399516   0.401487244096   0.402214261292   
      0.402830601884   0.403335624082   0.403728853894   0.404009953795   0.404178699088   
      0.390222041396   0.390160499125   0.389975933815   0.38966853369   0.389238624926   
      0.38868669066   0.388013398193   0.387219634888   0.386306553367   0.385275626496   
      0.384128712596   0.382868130948   0.381496747254   0.380018068069   0.378436342351   
      0.376756667299   0.37498509444   0.373128730781   0.371195828644   0.369195856976   
      0.367139546405   0.365038900493   0.36290716651   0.360758760799   0.358609146308   
      0.356474662968   0.354372315079   0.352319523173   0.350333850683   0.348432717693   
      0.346633114752   0.344951329215   0.343402694841   0.342001372644   0.340760167809   
      0.339690384083   0.338801714018   0.338102161024   0.337597987636   0.337293683746   
      0.337191948892   0.337293683746   0.337597987636   0.338102161024   0.338801714018   
      0.339690384083   0.340760167809   0.342001372644   0.343402694841   0.344951329215   
      0.346633114752   0.348432717693   0.350333850683   0.352319523173   0.354372315079   
      0.356474662968   0.358609146308   0.360758760799   0.36290716651   0.365038900493   
      0.367139546405   0.369195856976   0.371195828644   0.373128730781   0.37498509444   
      0.376756667299   0.378436342351   0.380018068069   0.381496747254   0.382868130948   
      0.384128712596   0.385275626496   0.386306553367   0.387219634888   0.388013398193   
      0.38868669066   0.389238624926   0.38966853369   0.389975933815   0.390160499125   
      0.38004720272   0.379982250788   0.379787473161   0.379463108476   0.379009568288   
      0.378427458118   0.377717607487   0.376881109446   0.375919370089   0.374834168498   
      0.373627727326   0.372302793842   0.370862730735   0.369311615132   0.367654343388   
      0.365896737978   0.364045651634   0.362109062592   0.360096153744   0.358017367797   
      0.355884430388   0.353710333733   0.351509274873   0.349296544994   0.347088369465   
      0.344901701905   0.342753979368   0.340662849109   0.338645879906   0.336720272193   
      0.334902581064   0.33320846459   0.331652467059   0.330247843093   0.329006424662   
      0.327938529204   0.327052903952   0.326356699264   0.325855462594   0.325553144581   
      0.325452109583   0.325553144581   0.325855462594   0.326356699264   0.327052903952   
      0.327938529204   0.329006424662   0.330247843093   0.331652467059   0.33320846459   
      0.334902581064   0.336720272193   0.338645879906   0.340662849109   0.342753979368   
      0.344901701905   0.347088369465   0.349296544994   0.351509274873   0.353710333733   
      0.355884430388   0.358017367797   0.360096153744   0.362109062592   0.364045651634   
      0.365896737978   0.367654343388   0.369311615132   0.370862730735   0.372302793842   
      0.373627727326   0.374834168498   0.375919370089   0.376881109446   0.377717607487   
      0.378427458118   0.379009568288   0.379463108476   0.379787473161   0.379982250788   
      0.373488368913   0.373421428234   0.373220696171   0.372886447053   0.372419152905   
      0.37181950595   0.371088450674   0.370227225904   0.369237417359   0.368121020986   
      0.366880517168   0.365518955374   0.364040048244   0.362448273166   0.360748978377   
      0.35894848936   0.357054210026   0.355074711912   0.353019803648   0.350900572421   
      0.348729389287   0.346519871226   0.344286794745   0.342045958789   0.339813998272   
      0.337608153586   0.335446005331   0.333345186775   0.331323088705   0.32939657202   
      0.327581702474   0.325893519553   0.324345847934   0.322951155682   0.321720459053   
      0.320663269833   0.319787578064   0.319099860969   0.318605108056   0.318306852597   
      0.318207200886   0.318306852597   0.318605108056   0.319099860969   0.319787578064   
      0.320663269833   0.321720459053   0.322951155682   0.324345847934   0.325893519553   
      0.327581702474   0.32939657202   0.331323088705   0.333345186775   0.335446005331   
      0.337608153586   0.339813998272   0.342045958789   0.344286794745   0.346519871226   
      0.348729389287   0.350900572421   0.353019803648   0.355074711912   0.357054210026   
      0.35894848936   0.360748978377   0.362448273166   0.364040048244   0.365518955374   
      0.366880517168   0.368121020986   0.369237417359   0.370227225904   0.371088450674   
      0.37181950595   0.372419152905   0.372886447053   0.373220696171   0.373421428234   
      0.370292085778   0.370224237548   0.370020788926   0.369682032678   0.369208472073   
      0.368600844155   0.367860152866   0.366987712459   0.365985201611   0.364854728502   
      0.363598906836   0.362220942273   0.360724728048   0.359114947656   0.357397181318   
      0.355578011719   0.353665123155   0.351667387006   0.349594925537   0.347459145573   
      0.345272733935   0.343049607737   0.340804814848   0.338554382973   0.33631511964   
      0.334104369533   0.331939739523   0.329838804943   0.32781881255   0.325896395978   
      0.324087318117   0.322406252064   0.32086660832   0.319480411422   0.318258224703   
      0.317209117953   0.316340669709   0.315658994075   0.315168781287   0.314873341677   
      0.314774644064   0.314873341677   0.315168781287   0.315658994075   0.316340669709   
      0.317209117953   0.318258224703   0.319480411422   0.32086660832   0.322406252064   
      0.324087318117   0.325896395978   0.32781881255   0.329838804943   0.331939739523   
      0.334104369533   0.33631511964   0.338554382973   0.340804814848   0.343049607737   
      0.345272733935   0.347459145573   0.349594925537   0.351667387006   0.353665123155   
      0.355578011719   0.357397181318   0.359114947656   0.360724728048   0.362220942273   
      0.363598906836   0.364854728502   0.365985201611   0.366987712459   0.367860152866   
      0.368600844155   0.369208472073   0.369682032678   0.370020788926   0.370224237548   
      0.370292085778   0.370224237548   0.370020788926   0.369682032678   0.369208472073   
      0.368600844155   0.367860152866   0.366987712459   0.365985201611   0.364854728502   
      0.363598906836   0.362220942273   0.360724728048   0.359114947656   0.357397181318   
      0.355578011719   0.353665123155   0.351667387006   0.349594925537   0.347459145573   
      0.345272733935   0.343049607737   0.340804814848   0.338554382973   0.33631511964   
      0.334104369533   0.331939739523   0.329838804943   0.32781881255   0.325896395978   
      0.324087318117   0.322406252064   0.32086660832   0.319480411422   0.318258224703   
      0.317209117953   0.316340669709   0.315658994075   0.315168781287   0.314873341677   
      0.314774644064   0.314873341677   0.315168781287   0.315658994075   0.316340669709   
      0.317209117953   0.318258224703   0.319480411422   0.32086660832   0.322406252064   
      0.324087318117   0.325896395978   0.32781881255   0.329838804943   0.331939739523   
      0.334104369533   0.33631511964   0.338554382973   0.340804814848   0.343049607737   
      0.345272733935   0.347459145573   0.349594925537   0.351667387006   0.353665123155   
      0.355578011719   0.357397181318   0.359114947656   0.360724728048   0.362220942273   
      0.363598906836   0.364854728502   0.365985201611   0.366987712459   0.367860152866   
      0.368600844155   0.369208472073   0.369682032678   0.370020788926   0.370224237548   
      0.373488368913   0.373421428234   0.373220696171   0.372886447053   0.372419152905   
      0.37181950595   0.371088450674   0.370227225904   0.369237417359   0.368121020986   
      0.366880517168   0.365518955374   0.364040048244   0.362448273166   0.360748978377   
      0.35894848936   0.357054210026   0.355074711912   0.353019803648   0.350900572421   
      0.348729389287   0.346519871226   0.344286794745   0.342045958789   0.339813998272   
      0.337608153586   0.335446005331   0.333345186775   0.331323088705   0.32939657202   
      0.327581702474   0.325893519553   0.324345847934   0.322951155682   0.321720459053   
      0.320663269833   0.319787578064   0.319099860969   0.318605108056   0.318306852597   
      0.318207200886   0.318306852597   0.318605108056   0.319099860969   0.319787578064   
      0.320663269833   0.321720459053   0.322951155682   0.324345847934   0.325893519553   
      0.327581702474   0.32939657202   0.331323088705   0.333345186775   0.335446005331   
      0.337608153586   0.339813998272   0.342045958789   0.344286794745   0.346519871226   
      0.348729389287   0.350900572421   0.353019803648   0.355074711912   0.357054210026   
      0.35894848936   0.360748978377   0.362448273166   0.364040048244   0.365518955374   
      0.366880517168   0.368121020986   0.369237417359   0.370227225904   0.371088450674   
      0.37181950595   0.372419152905   0.372886447053   0.373220696171   0.373421428234   
      0.38004720272   0.379982250788   0.379787473161   0.379463108476   0.379009568288   
      0.378427458118   0.377717607487   0.376881109446   0.375919370089   0.374834168498   
      0.373627727326   0.372302793842   0.370862730735   0.369311615132   0.367654343388   
      0.365896737978   0.364045651634   0.362109062592   0.360096153744   0.358017367797   
      0.355884430388   0.353710333733   0.351509274873   0.349296544994   0.347088369465   
      0.344901701905   0.342753979368   0.340662849109   0.338645879906   0.336720272193   
      0.334902581064   0.33320846459   0.331652467059   0.330247843093   0.329006424662   
      0.327938529204   0.327052903952   0.326356699264   0.325855462594   0.325553144581   
      0.325452109583   0.325553144581   0.325855462594   0.326356699264   0.327052903952   
      0.327938529204   0.329006424662   0.330247843093   0.331652467059   0.33320846459   
      0.334902581064   0.336720272193   0.338645879906   0.340662849109   0.342753979368   
      0.344901701905   0.347088369465   0.349296544994   0.351509274873   0.353710333733   
      0.355884430388   0.358017367797   0.360096153744   0.362109062592   0.364045651634   
      0.365896737978   0.367654343388   0.369311615132   0.370862730735   0.372302793842   
      0.373627727326   0.374834168498   0.375919370089   0.376881109446   0.377717607487   
      0.378427458118   0.379009568288   0.379463108476   0.379787473161   0.379982250788   
      0.390222041396   0.390160499125   0.389975933815   0.38966853369   0.389238624926   
      0.38868669066   0.388013398193   0.387219634888   0.386306553367   0.385275626496   
      0.384128712596   0.382868130948   0.381496747254   0.380018068069   0.378436342351   
      0.376756667299   0.37498509444   0.373128730781   0.371195828644   0.369195856976   
      0.367139546405   0.365038900493   0.36290716651   0.360758760799   0.358609146308   
      0.356474662968   0.354372315079   0.352319523173   0.350333850683   0.348432717693   
      0.346633114752   0.344951329215   0.343402694841   0.342001372644   0.340760167809   
      0.339690384083   0.338801714018   0.338102161024   0.337597987636   0.337293683746   
      0.337191948892   0.337293683746   0.337597987636   0.338102161024   0.338801714018   
      0.339690384083   0.340760167809   0.342001372644   0.343402694841   0.344951329215   
      0.346633114752   0.348432717693   0.350333850683   0.352319523173   0.354372315079   
      0.356474662968   0.358609146308   0.360758760799   0.36290716651   0.365038900493   
      0.367139546405   0.369195856976   0.371195828644   0.373128730781   0.37498509444   
      0.376756667299   0.378436342351   0.380018068069   0.381496747254   0.382868130948   
      0.384128712596   0.385275626496   0.386306553367   0.387219634888   0.388013398193   
      0.38868669066   0.389238624926   0.38966853369   0.389975933815   0.390160499125   
      0.404234961423   0.404178699088   0.404009953795   0.403728853894   0.403335624082   
      0.402830601884   0.402214261292   0.401487244096   0.400650399516   0.399704832747   
      0.398651962965   0.397493591142   0.396231977697   0.394869929523   0.393410895231   
      0.391859066629   0.39021948343   0.38849813707   0.386702068402   0.384839453014   
      0.382919667173   0.380953327098   0.378952294517   0.376929642473   0.374899577002   
      0.372877312744   0.370878903338   0.36892103058   0.367020759204   0.36519526661   
      0.363461558448   0.361836181619   0.360334945757   0.358972662871   0.357762912665   
      0.356717838502   0.355847976379   0.355162116942   0.35466719882   0.354368230423   
      0.354268237044   0.354368230423   0.35466719882   0.355162116942   0.355847976379   
      0.356717838502   0.357762912665   0.358972662871   0.360334945757   0.361836181619   
      0.363461558448   0.36519526661   0.367020759204   0.36892103058   0.370878903338   
      0.372877312744   0.374899577002   0.376929642473   0.378952294517   0.380953327098   
      0.382919667173   0.384839453014   0.386702068402   0.38849813707   0.39021948343   
      0.391859066629   0.393410895231   0.394869929523   0.396231977697   0.397493591142   
      0.398651962965   0.399704832747   0.400650399516   0.401487244096   0.402214261292   
      0.402830601884   0.403335624082   0.403728853894   0.404009953795   0.404178699088   
      0.422007772868   0.421958910596   0.421812346012   0.421568148433   0.421226442185   