<?xml version="1.0"?>
<VTKFile type="ImageData" version="0.1" byte_order="LittleEndian">
  <ImageData WholeExtent="0 79 0 19 0 19" Origin="0 0 0" Spacing="1 1 1">
  <Piece Extent="0 79 0 19 0 19">
    <PointData Scalars="density">
       <DataArray type="Float32" Name="bluedensity" NumberOfComponents="1" format="ascii">
      0   0   0   0   0   
      0   0   0   0   0   
      0   0   0   0   0   
      0   0   0   0   0   
      0   0   0   0   0   
      0   0   0   0   0   
      0   0   0   0   0   
      0   0   0   0   0   
      0   0   0   0   0   
      0   0   0   0   0   
      0   0   0   0   0   
      0   0   0   0   0   
      0   0   0   0   0   
      0   0   0   0   0   
      0   0   0   0   0   
      0   0   0   0   0   
      0   0   0   0   0   
      0   0   0   0   0   
      0   0   0   0   0   
      0   0   0   0   0   
      0   0   0   0   0   
      0   0   0   0   0   
      0   0   0   0   0   
      0   0   0   0   0   
      0   0   0   0   0   
      0   0   0   0   0   
      0   0   0   0   0   
      0   0   0   0   0   
      0   0   0   0   0   
      0   0   0   0   0   
      0   0   0   0   0   
      0   0   0   0   0   
      0   0   0   0   0   
      0   0   0   0   0   
      0   0   0   0   0   
      0   0   0   0   0   
      0   0   0   0   0   
      0   0   0   0   0   
      0   0   0   0   0   
      0   0   0   0   0   
      0   0   0   0   0   
      0   0   0   0   0   
      0   0   0   0   0   
      0   0   0   0   0   
      0   0   0   0   0   
      0   0   0   0   0   
      0   0   0   0   0   
      0   0   0   0   0   
      0   0   0   0   0   
      0   0   0   0   0   
      0   0   0   0   0   
      0   0   0   0   0   
      0   0   0   0   0   
      0   0   0   0   0   
      0   0   0   0   0   
      0   0   0   0   0   
      0   0   0   0   0   
      0   0   0   0   0   
      0   0   0   0   0   
      0   0   0   0   0   
      0   0   0   0   0   
      0   0   0   0   0   
      0   0   0   0   0   
      0   0   0   0   0   
      0   0   0   0   0   
      0   0   0   0   0   
      0   0   0   0   0   
      0   0   0   0   0   
      0   0   0   0   0   
      0   0   0   0   0   
      0   0   0   0   0   
      0   0   0   0   0   
      0   0   0   0   0   
      0   0   0   0   0   
      0   0   0   0   0   
      0   0   0   0   0   
      0   0   0   0   0   
      0   0   0   0   0   
      0   0   0   0   0   
      0   0   0   0   0   
      0   0   0   0   0   
      0   0   0   0   0   
      0   0   0   0   0   
      0   0   0   0   0   
      0   0   0   0   0   
      0   0   0   0   0   
      0   0   0   0   0   
      0   0   0   0   0   
      0   0   0   0   0   
      0   0   0   0   0   
      0   0   0   0   0   
      0   0   0   0   0   
      0   0   0   0   0   
      0   0   0   0   0   
      0   0   0   0   0   
      0   0   0   0   0   
      0   0   0   0   0   
      0   0   0   0   0   
      0   0   0   0   0   
      0   0   0   0   0   
      0   0   0   0   0   
      0   0   0   0   0   
      0   0   0   0   0   
      0   0   0   0   0   
      0   0   0   0   0   
      0   0   0   0   0   
      0   0   0   0   0   
      0   0   0   0   0   
      0   0   0   0   0   
      0   0   0   0   0   
      0   0   0   0   0   
      0   0   0   0   0   
      0   0   0   0   0   
      0   0   0   0   0   
      0   0   0   0   0   
      0   0   0   0   0   
      0   0   0   0   0   
      0   0   0   0   0   
      0   0   0   0   0   
      0   0   0   0   0   
      0   0   0   0   0   
      0   0   0   0   0   
      0   0   0   0   0   
      0   0   0   0   0   
      0   0   0   0   0   
      0   0   0   0   0   
      0   0   0   0   0   
      0   0   0   0   0   
      0   0   0   0   0   
      0   0   0   0   0   
      0   0   0   0   0   
      0   0   0   0   0   
      0   0   0   0   0   
      0   0   0   0   0   
      0   0   0   0   0   
      0   0   0   0   0   
      0   0   0   0   0   
      0   0   0   0   0   
      0   0   0   0   0   
      0   0   0   0   0   
      0   0   0   0   0   
      0   0   0   0   0   
      0   0   0   0   0   
      0   0   0   0   0   
      0   0   0   0   0   
      0   0   0   0   0   
      0   0   0   0   0   
      0   0   0   0   0   
      0   0   0   0   0   
      0   0   0   0   0   
      0   0   0   0   0   
      0   0   0   0   0   
      0   0   0   0   0   
      0   0   0   0   0   
      0   0   0   0   0   
      0   0   0   0   0   
      0   0   0   0   0   
      0   0   0   0   0   
      0   0   0   0   0   
      0   0   0   0   0   
      0   0   0   0   0   
      0   0   0   0   0   
      0   0   0   0   0   
      0   0   0   0   0   
      0   0   0   0   0   
      0   0   0   0   0   
      0   0   0   0   0   
      0   0   0   0   0   
      0   0   0   0   0   
      0   0   0   0   0   
      0   0   0   0   0   
      0   0   0   0   0   
      0   0   0   0   0   
      0   0   0   0   0   
      0   0   0   0   0   
      0   0   0   0   0   
      0   0   0   0   0   
      0   0   0   0   0   
      0   0   0   0   0   
      0   0   0   0   0   
      0   0   0   0   0   
      0   0   0   0   0   
      0   0   0   0   0   
      0   0   0   0   0   
      0   0   0   0   0   
      0   0   0   0   0   
      0   0   0   0   0   
      0   0   0   0   0   
      0   0   0   0   0   
      0   0   0   0   0   
      0   0   0   0   0   
      0   0   0   0   0   
      0   0   0   0   0   
      0   0   0   0   0   
      0   0   0   0   0   
      0   0   0   0   0   
      0   0   0   0   0   
      0   0   0   0   0   
      0   0   0   0   0   
      0   0   0   0   0   
      0   0   0   0   0   
      0   0   0   0   0   
      0   0   0   0   0   
      0   0   0   0   0   
      0   0   0   0   0   
      0   0   0   0   0   
      0   0   0   0   0   
      0   0   0   0   0   
      0   0   0   0   0   
      0   0   0   0   0   
      0   0   0   0   0   
      0   0   0   0   0   
      0   0   0   0   0   
      0   0   0   0   0   
      0   0   0   0   0   
      0   0   0   0   0   
      0   0   0   0   0   
      0   0   0   0   0   
      0   0   0   0   0   
      0   0   0   0   0   
      0   0   0   0   0   
      0   0   0   0   0   
      0   0   0   0   0   
      0   0   0   0   0   
      0   0   0   0   0   
      0   0   0   0   0   
      0   0   0   0   0   
      0   0   0   0   0   
      0   0   0   0   0   
      0   0   0   0   0   
      0   0   0   0   0   
      0   0   0   0   0   
      0   0   0   0   0   
      0   0   0   0   0   
      0   0   0   0   0   
      0   0   0   0   0   
      0   0   0   0   0   
      0   0   0   0   0   
      0   0   0   0   0   
      0   0   0   0   0   
      0   0   0   0   0   
      0   0   0   0   0   
      0   0   0   0   0   
      0   0   0   0   0   
      0   0   0   0   0   
      0   0   0   0   0   
      0   0   0   0   0   
      0   0   0   0   0   
      0   0   0   0   0   
      0   0   0   0   0   
      0   0   0   0   0   
      0   0   0   0   0   
      0   0   0   0   0   
      0   0   0   0   0   
      0   0   0   0   0   
      0   0   0   0   0   
      0   0   0   0   0   
      0   0   0   0   0   
      0   0   0   0   0   
      0   0   0   0   0   
      0   0   0   0   0   
      0   0   0   0   0   
      0   0   0   0   0   
      0   0   0   0   0   
      0   0   0   0   0   
      0   0   0   0   0   
      0   0   0   0   0   
      0   0   0   0   0   
      0   0   0   0   0   
      0   0   0   0   0   
      0   0   0   0   0   
      0   0   0   0   0   
      0   0   0   0   0   
      0   0   0   0   0   
      0   0   0   0   0   
      0   0   0   0   0   
      0   0   0   0   0   
      0   0   0   0   0   
      0   0   0   0   0   
      0   0   0   0   0   
      0   0   0   0   0   
      0   0   0   0   0   
      0   0   0   0   0   
      0   0   0   0   0   
      0   0   0   0   0   
      0   0   0   0   0   
      0   0   0   0   0   
      0   0   0   0   0   
      0   0   0   0   0   
      0   0   0   0   0   
      0   0   0   0   0   
      0   0   0   0   0   
      0   0   0   0   0   
      0   0   0   0   0   
      0   0   0   0   0   
      0   0   0   0   0   
      0   0   0   0   0   
      0   0   0   0   0   
      0   0   0   0   0   
      0   0   0   0   0   
      0   0   0   0   0   
      0   0   0   0   0   
      0   0   0   0   0   
      0   0   0   0   0   
      0   0   0   0   0   
      0   0   0   0   0   
      0   0   0   0   0   
      0   0   0   0   0   
      0   0   0   0   0   
      0   0   0   0   0   
      0   0   0   0   0   
      0   0   0   0   0   
      0   0   0   0   0   
      0   0   0   0   0   
      0   0   0   0   0   
      0   0   0   0   0   
      0   0   0   0   0   
      0   0   0   0   0   
      0   0   0   0   0   
      0   0   0   0   0   
      0   0   0   0   0   
      0   0   0   0   0   
      0   0   0   0   0   
      0   0   0   0   0   
      0   0   0   0   0   
      0   0   0   0   0   
      0   0   0   0   0   
      0   0   0   0   0   
      0   0   0   0   0   
      0   0   0   0   0   
      0   0   0   0   0   
      0   0   0   0   0   
      0   0   0   0   0   
      0   0   0   0   0   
      0   0   0   0   0   
      0   0   0   0   0   
      0.578047192766   0.578024119783   0.577954900436   0.577839534369   0.577678023814   
      0.577470377983   0.577216619507   0.576916793228   0.576570977719   0.576179299992   
      0.57574195392   0.57525922293   0.574731507564   0.574159358434   0.573543515023   
      0.572884950583   0.5721849231   0.571445031894   0.57066727892   0.569854133178   
      0.56900859599   0.568134264104   0.567235386933   0.56631691357   0.5653845249   
      0.564444645946   0.563504433902   0.562571737935   0.561655027962   0.560763291038   
      0.559905895765   0.559092427055   0.558332495483   0.557635527257   0.557010542291   
      0.556465928943   0.556009224532   0.555646910793   0.555384232973   0.555225050322   
      0.555171724446   0.555225050322   0.555384232973   0.555646910793   0.556009224532   
      0.556465928943   0.557010542291   0.557635527257   0.558332495483   0.559092427055   
      0.559905895765   0.560763291038   0.561655027962   0.562571737935   0.563504433902   
      0.564444645946   0.5653845249   0.56631691357   0.567235386933   0.568134264104   
      0.56900859599   0.569854133178   0.57066727892   0.571445031894   0.5721849231   
      0.572884950583   0.573543515023   0.574159358434   0.574731507564   0.57525922293   
      0.57574195392   0.576179299992   0.576570977719   0.576916793228   0.577216619507   
      0.577470377983   0.577678023814   0.577839534369   0.577954900436   0.578024119783   
      0.468295777946   0.468263939459   0.468168417474   0.468009193751   0.467786242415   
      0.46749953696   0.467149060499   0.466734819707   0.466256862998   0.465715303606   
      0.465110348302   0.464442332518   0.463711762633   0.462919366087   0.462066149758   
      0.461153466756   0.460183091252   0.459157300394   0.458078961507   0.456951621942   
      0.455779597889   0.454568057548   0.453323093164   0.452051775814   0.450762186555   
      0.449463417762   0.448165539185   0.446879524579   0.445617136564   0.44439076957   
      0.443213253168   0.442097620527   0.441056848983   0.440103581545   0.439249839461   
      0.438506736611   0.437884206562   0.437390752532   0.437033229504   0.436816666377   
      0.436744134395   0.436816666377   0.437033229504   0.437390752532   0.437884206562   
      0.438506736611   0.439249839461   0.440103581545   0.441056848983   0.442097620527   
      0.443213253168   0.44439076957   0.445617136564   0.446879524579   0.448165539185   
      0.449463417762   0.450762186555   0.452051775814   0.453323093164   0.454568057548   
      0.455779597889   0.456951621942   0.458078961507   0.459157300394   0.460183091252   
      0.461153466756   0.462066149758   0.462919366087   0.463711762633   0.464442332518   
      0.465110348302   0.465715303606   0.466256862998   0.466734819707   0.467149060499   
      0.46749953696   0.467786242415   0.468009193751   0.468168417474   0.468263939459   
      0.445610676193   0.445569235339   0.445444909631   0.445237691584   0.444947575341   
      0.44457456688   0.444118698883   0.443580050822   0.442958774952   0.442255129028   
      0.441469516594   0.440602535735   0.439655037061   0.438628191509   0.437523568178   
      0.436343221916   0.435089789641   0.433766593494   0.432377747866   0.430928266182   
      0.429424162145   0.427872539115   0.42628166048   0.424660993536   0.423021219585   
      0.421374203824   0.419732920161   0.418111328239   0.416524202664   0.414986917227   
      0.413515189825   0.412124796203   0.410831262576   0.409649548298   0.408593730039   
      0.407676698512   0.406909877658   0.406302974727   0.405863767984   0.405597937111   
      0.405508939841   0.405597937111   0.405863767984   0.406302974727   0.406909877658   
      0.407676698512   0.408593730039   0.409649548298   0.410831262576   0.412124796203   
      0.413515189825   0.414986917227   0.416524202664   0.418111328239   0.419732920161   
      0.421374203824   0.423021219585   0.424660993536   0.42628166048   0.427872539115   
      0.429424162145   0.430928266182   0.432377747866   0.433766593494   0.435089789641   
      0.436343221916   0.437523568178   0.438628191509   0.439655037061   0.440602535735   
      0.441469516594   0.442255129028   0.442958774952   0.443580050822   0.444118698883   
      0.44457456688   0.444947575341   0.445237691584   0.445444909631   0.445569235339   
      0.423214804585   0.423163456443   0.423009421135   0.422752728686   0.422393438144   
      0.421931651435   0.421367533451   0.42070133902   0.419933447566   0.419064406354   
      0.418094983231   0.417026229724   0.415859555142   0.414596811963   0.413240392265   
      0.411793334125   0.41025943601   0.408643375916   0.406950830757   0.405188590144   
      0.403364657465   0.401488330265   0.399570251487   0.397622423376   0.395658176905   
      0.393692091426   0.391739861902   0.389818114264   0.387944172821   0.386135786945   
      0.384410826992   0.382786961276   0.381281326741   0.379910205695   0.378688719663   
      0.377630549441   0.376747687974   0.376050230274   0.375546202384   0.375241429761   
      0.375139444411   0.375241429761   0.375546202384   0.376050230274   0.376747687974   
      0.377630549441   0.378688719663   0.379910205695   0.381281326741   0.382786961276   
      0.384410826992   0.386135786945   0.387944172821   0.389818114264   0.391739861902   
      0.393692091426   0.395658176905   0.397622423376   0.399570251487   0.401488330265   
      0.403364657465   0.405188590144   0.406950830757   0.408643375916   0.41025943601   
      0.411793334125   0.413240392265   0.414596811963   0.415859555142   0.417026229724   
      0.418094983231   0.419064406354   0.419933447566   0.42070133902   0.421367533451   
      0.421931651435   0.422393438144   0.422752728686   0.423009421135   0.423163456443   
      0.405644280345   0.405585087473   0.405407536619   0.405111714389   0.404697776329   
      0.404165964103   0.403516630321   0.402750271706   0.401867571456   0.400869451708   
      0.399757136958   0.398532229147   0.397196794762   0.395753463762   0.394205539364   
      0.392557116692   0.390813207053   0.388979863178   0.387064299304   0.385074998568   
      0.383021799151   0.380915950024   0.378770127383   0.376598403971   0.374416165594   
      0.372239972141   0.370087364104   0.367976619547   0.365926470283   0.363955789071   
      0.362083261692   0.360327058361   0.358704518131   0.357231857896   0.355923914598   
      0.354793925781   0.353853350215   0.35311172732   0.352576571934   0.352253299713   
      0.352145178261   0.352253299713   0.352576571934   0.35311172732   0.353853350215   
      0.354793925781   0.355923914598   0.357231857896   0.358704518131   0.360327058361   
      0.362083261692   0.363955789071   0.365926470283   0.367976619547   0.370087364104   
      0.372239972141   0.374416165594   0.376598403971   0.378770127383   0.380915950024   
      0.383021799151   0.385074998568   0.387064299304   0.388979863178   0.390813207053   
      0.392557116692   0.394205539364   0.395753463762   0.397196794762   0.398532229147   
      0.399757136958   0.400869451708   0.401867571456   0.402750271706   0.403516630321   
      0.404165964103   0.404697776329   0.405111714389   0.405407536619   0.405585087473   
      0.391778160557   0.391713344537   0.391518943831   0.391195104404   0.390742082626   
      0.39016026534   0.389450198755   0.3886126269   0.387648540492   0.386559237062   
      0.38534639308   0.384012148547   0.382559203994   0.380990929143   0.379311481445   
      0.377525931465   0.375640390649   0.373662135372   0.371599719685   0.369463067877   
      0.367263537207   0.365013941164   0.362728524634   0.360422884422   0.358113831783   
      0.355819197634   0.353557585606   0.351348082455   0.349209939073   0.347162237736   
      0.345223562108   0.343411685571   0.341743290994   0.340233731306   0.338896835917   
      0.337744763587   0.336787898453   0.336034782901   0.335492079184   0.335164551064   
      0.33505505739   0.335164551064   0.335492079184   0.336034782901   0.336787898453   
      0.337744763587   0.338896835917   0.340233731306   0.341743290994   0.343411685571   
      0.345223562108   0.347162237736   0.349209939073   0.351348082455   0.353557585606   
      0.355819197634   0.358113831783   0.360422884422   0.362728524634   0.365013941164   
      0.367263537207   0.369463067877   0.371599719685   0.373662135372   0.375640390649   
      0.377525931465   0.379311481445   0.380990929143   0.382559203994   0.384012148547   
      0.38534639308   0.386559237062   0.387648540492   0.3886126269   0.389450198755   
      0.39016026534   0.390742082626   0.391195104404   0.391518943831   0.391713344537   
      0.381699740889   0.381631276553   0.381425947635   0.381083950769   0.380605628338   
      0.3799914909   0.379242249386   0.378358857834   0.377342567442   0.376194992718   
      0.374918190312   0.373514750697   0.371987902261   0.370341626439   0.36858078137   
      0.366711230069   0.364739967542   0.362675239553   0.3605266443   0.35830520714   
      0.356023418128   0.353695222759   0.351335958062   0.348962229185   0.346591725707   
      0.344242981688   0.341935088408   0.339687373206   0.337519061061   0.335448937144   
      0.333495028143   0.331674317847   0.33000250853   0.328493834795   0.32716093128   
      0.326014750814   0.325064525628   0.324317761574   0.32378025402   0.323456114149   
      0.323347795669   0.323456114149   0.32378025402   0.324317761574   0.325064525628   
      0.326014750814   0.32716093128   0.328493834795   0.33000250853   0.331674317847   
      0.333495028143   0.335448937144   0.337519061061   0.339687373206   0.341935088408   
      0.344242981688   0.346591725707   0.348962229185   0.351335958062   0.353695222759   
      0.356023418128   0.35830520714   0.3605266443   0.362675239553   0.364739967542   
      0.366711230069   0.36858078137   0.370341626439   0.371987902261   0.373514750697   
      0.374918190312   0.376194992718   0.377342567442   0.378358857834   0.379242249386   
      0.3799914909   0.380605628338   0.381083950769   0.381425947635   0.381631276553   
      0.3751979534   0.375127352089   0.374915624157   0.374563002301   0.374069890154   
      0.373436886415   0.37266481946   0.371754793126   0.370708244461   0.369527014102   
      0.36821342971   0.366770402406   0.36520153541   0.363511243053   0.361704877015   
      0.359788855075   0.357770785959   0.35565958217   0.353465551254   0.351200455083   
      0.348877526703   0.346511435378   0.344118192872   0.341714997633   0.339320018274   
      0.336952122944   0.334630566358   0.332374650553   0.330203378189   0.328135118003   
      0.326187300612   0.324376159477   0.322716526955   0.321221689751   0.3199033024   
      0.318771352481   0.317834167471   0.31709845086   0.316569334342   0.316250433459   
      0.316143895808   0.316250433459   0.316569334342   0.31709845086   0.317834167471   
      0.318771352481   0.3199033024   0.321221689751   0.322716526955   0.324376159477   
      0.326187300612   0.328135118003   0.330203378189   0.332374650553   0.334630566358   
      0.336952122944   0.339320018274   0.341714997633   0.344118192872   0.346511435378   
      0.348877526703   0.351200455083   0.353465551254   0.35565958217   0.357770785959   
      0.359788855075   0.361704877015   0.363511243053   0.36520153541   0.366770402406   
      0.36821342971   0.369527014102   0.370708244461   0.371754793126   0.37266481946   
      0.373436886415   0.374069890154   0.374563002301   0.374915624157   0.375127352089   
      0.372027957472   0.371956377902   0.371741721353   0.371384239185   0.370884366746   
      0.37024274841   0.369460273453   0.368538123455   0.367477831975   0.366281357112   
      0.364951167299   0.363490340116   0.361902673138   0.360192804724   0.358366341253   
      0.356429985722   0.354391660833   0.35226061804   0.350047522619   0.347764504093   
      0.345425161511   0.343044514437   0.340638893248   0.338225766322   0.33582350668   
      0.333451106111   0.331127850003   0.328872970246   0.326705296085   0.324642923052   
      0.322702918202   0.320901075935   0.319251733337   0.317767648023   0.316459935655   
      0.315338059356   0.314409859627   0.313681611296   0.313158093518   0.312842659666   
      0.312737295867   0.312842659666   0.313158093518   0.313681611296   0.314409859627   
      0.315338059356   0.316459935655   0.317767648023   0.319251733337   0.320901075935   
      0.322702918202   0.324642923052   0.326705296085   0.328872970246   0.331127850003   
      0.333451106111   0.33582350668   0.338225766322   0.340638893248   0.343044514437   
      0.345425161511   0.347764504093   0.350047522619   0.35226061804   0.354391660833   
      0.356429985722   0.358366341253   0.360192804724   0.361902673138   0.363490340116   
      0.364951167299   0.366281357112   0.367477831975   0.368538123455   0.369460273453   
      0.37024274841   0.370884366746   0.371384239185   0.371741721353   0.371956377902   
      0.372027957472   0.371956377902   0.371741721353   0.371384239185   0.370884366746   
      0.37024274841   0.369460273453   0.368538123455   0.367477831975   0.366281357112   
      0.364951167299   0.363490340116   0.361902673138   0.360192804724   0.358366341253   
      0.356429985722   0.354391660833   0.35226061804   0.350047522619   0.347764504093   
      0.345425161511   0.343044514437   0.340638893248   0.338225766322   0.33582350668   
      0.333451106111   0.331127850003   0.328872970246   0.326705296085   0.324642923052   
      0.322702918202   0.320901075935   0.319251733337   0.317767648023   0.316459935655   
      0.315338059356   0.314409859627   0.313681611296   0.313158093518   0.312842659666   
      0.312737295867   0.312842659666   0.313158093518   0.313681611296   0.314409859627   
      0.315338059356   0.316459935655   0.317767648023   0.319251733337   0.320901075935   
      0.322702918202   0.324642923052   0.326705296085   0.328872970246   0.331127850003   
      0.333451106111   0.33582350668   0.338225766322   0.340638893248   0.343044514437   
      0.345425161511   0.347764504093   0.350047522619   0.35226061804   0.354391660833   
      0.356429985722   0.358366341253   0.360192804724   0.361902673138   0.363490340116   
      0.364951167299   0.366281357112   0.367477831975   0.368538123455   0.369460273453   
      0.37024274841   0.370884366746   0.371384239185   0.371741721353   0.371956377902   
      0.3751979534   0.375127352089   0.374915624157   0.374563002301   0.374069890154   
      0.373436886415   0.37266481946   0.371754793126   0.370708244461   0.369527014102   
      0.36821342971   0.366770402406   0.36520153541   0.363511243053   0.361704877015   
      0.359788855075   0.357770785959   0.35565958217   0.353465551254   0.351200455083   
      0.348877526703   0.346511435378   0.344118192872   0.341714997633   0.339320018274   
      0.336952122944   0.334630566358   0.332374650553   0.330203378189   0.328135118003   
      0.326187300612   0.324376159477   0.322716526955   0.321221689751   0.3199033024   
      0.318771352481   0.317834167471   0.31709845086   0.316569334342   0.316250433459   
      0.316143895808   0.316250433459   0.316569334342   0.31709845086   0.317834167471   
      0.318771352481   0.3199033024   0.321221689751   0.322716526955   0.324376159477   
      0.326187300612   0.328135118003   0.330203378189   0.332374650553   0.334630566358   
      0.336952122944   0.339320018274   0.341714997633   0.344118192872   0.346511435378   
      0.348877526703   0.351200455083   0.353465551254   0.35565958217   0.357770785959   
      0.359788855075   0.361704877015   0.363511243053   0.36520153541   0.366770402406   
      0.36821342971   0.369527014102   0.370708244461   0.371754793126   0.37266481946   
      0.373436886415   0.374069890154   0.374563002301   0.374915624157   0.375127352089   
      0.381699740889   0.381631276553   0.381425947635   0.381083950769   0.380605628338   
      0.3799914909   0.379242249386   0.378358857834   0.377342567442   0.376194992718   
      0.374918190312   0.373514750697   0.371987902261   0.370341626439   0.36858078137   
      0.366711230069   0.364739967542   0.362675239553   0.3605266443   0.35830520714   
      0.356023418128   0.353695222759   0.351335958062   0.348962229185   0.346591725707   
      0.344242981688   0.341935088408   0.339687373206   0.337519061061   0.335448937144   
      0.333495028143   0.331674317847   0.33000250853   0.328493834795   0.32716093128   
      0.326014750814   0.325064525628   0.324317761574   0.32378025402   0.323456114149   
      0.323347795669   0.323456114149   0.32378025402   0.324317761574   0.325064525628   
      0.326014750814   0.32716093128   0.328493834795   0.33000250853   0.331674317847   
      0.333495028143   0.335448937144   0.337519061061   0.339687373206   0.341935088408   
      0.344242981688   0.346591725707   0.348962229185   0.351335958062   0.353695222759   
      0.356023418128   0.35830520714   0.3605266443   0.362675239553   0.364739967542   
      0.366711230069   0.36858078137   0.370341626439   0.371987902261   0.373514750697   
      0.374918190312   0.376194992718   0.377342567442   0.378358857834   0.379242249386   
      0.3799914909   0.380605628338   0.381083950769   0.381425947635   0.381631276553   
      0.391778160557   0.391713344537   0.391518943831   0.391195104404   0.390742082626   
      0.39016026534   0.389450198755   0.3886126269   0.387648540492   0.386559237062   
      0.38534639308   0.384012148547   0.382559203994   0.380990929143   0.379311481445   
      0.377525931465   0.375640390649   0.373662135372   0.371599719685   0.369463067877   
      0.367263537207   0.365013941164   0.362728524634   0.360422884422   0.358113831783   
      0.355819197634   0.353557585606   0.351348082455   0.349209939073   0.347162237736   
      0.345223562108   0.343411685571   0.341743290994   0.340233731306   0.338896835917   
      0.337744763587   0.336787898453   0.336034782901   0.335492079184   0.335164551064   
      0.33505505739   0.335164551064   0.335492079184   0.336034782901   0.336787898453   
      0.337744763587   0.338896835917   0.340233731306   0.341743290994   0.343411685571   
      0.345223562108   0.347162237736   0.349209939073   0.351348082455   0.353557585606   
      0.355819197634   0.358113831783   0.360422884422   0.362728524634   0.365013941164   
      0.367263537207   0.369463067877   0.371599719685   0.373662135372   0.375640390649   
      0.377525931465   0.379311481445   0.380990929143   0.382559203994   0.384012148547   
      0.38534639308   0.386559237062   0.387648540492   0.3886126269   0.389450198755   
      0.39016026534   0.390742082626   0.391195104404   0.391518943831   0.391713344537   
      0.405644280345   0.405585087473   0.405407536619   0.405111714389   0.404697776329   
      0.404165964103   0.403516630321   0.402750271706   0.401867571456   0.400869451708   
      0.399757136958   0.398532229147   0.397196794762   0.395753463762   0.394205539364   
      0.392557116692   0.390813207053   0.388979863178   0.387064299304   0.385074998568   
      0.383021799151   0.380915950024   0.378770127383   0.376598403971   0.374416165594   
      0.372239972141   0.370087364104   0.367976619547   0.365926470283   0.363955789071   
      0.362083261692   0.360327058361   0.358704518131   0.357231857896   0.355923914598   
      0.354793925781   0.353853350215   0.35311172732   0.352576571934   0.352253299713   
      0.352145178261   0.352253299713   0.352576571934   0.35311172732   0.353853350215   
      0.354793925781   0.355923914598   0.357231857896   0.358704518131   0.360327058361   
      0.362083261692   0.363955789071   0.365926470283   0.367976619547   0.370087364104   
      0.372239972141   0.374416165594   0.376598403971   0.378770127383   0.380915950024   
      0.383021799151   0.385074998568   0.387064299304   0.388979863178   0.390813207053   
      0.392557116692   0.394205539364   0.395753463762   0.397196794762   0.398532229147   
      0.399757136958   0.400869451708   0.401867571456   0.402750271706   0.403516630321   
      0.404165964103   0.404697776329   0.405111714389   0.405407536619   0.405585087473   
      0.423214804585   0.423163456443   0.423009421135   0.422752728686   0.422393438144   