<?xml version="1.0"?>
<VTKFile type="ImageData" version="0.1" byte_order="LittleEndian">
  <ImageData WholeExtent="0 79 0 19 0 19" Origin="0 0 0" Spacing="1 1 1">
  <Piece Extent="0 79 0 19 0 19">
    <PointData Scalars="density">
       <DataArray type="Float32" Name="bluedensity" NumberOfComponents="1" format="ascii">
      0   0   0   0   0   
      0   0   0   0   0   
      0   0   0   0   0   
      0   0   0   0   0   
      0   0   0   0   0   
      0   0   0   0   0   
      0   0   0   0   0   
      0   0   0   0   0   
      0   0   0   0   0   
      0   0   0   0   0   
      0   0   0   0   0   
      0   0   0   0   0   
      0   0   0   0   0   
      0   0   0   0   0   
      0   0   0   0   0   
      0   0   0   0   0   
      0   0   0   0   0   
      0   0   0   0   0   
      0   0   0   0   0   
      0   0   0   0   0   
      0   0   0   0   0   
      0   0   0   0   0   
      0   0   0   0   0   
      0   0   0   0   0   
      0   0   0   0   0   
      0   0   0   0   0   
      0   0   0   0   0   
      0   0   0   0   0   
      0   0   0   0   0   
      0   0   0   0   0   
      0   0   0   0   0   
      0   0   0   0   0   
      0   0   0   0   0   
      0   0   0   0   0   
      0   0   0   0   0   
      0   0   0   0   0   
      0   0   0   0   0   
      0   0   0   0   0   
      0   0   0   0   0   
      0   0   0   0   0   
      0   0   0   0   0   
      0   0   0   0   0   
      0   0   0   0   0   
      0   0   0   0   0   
      0   0   0   0   0   
      0   0   0   0   0   
      0   0   0   0   0   
      0   0   0   0   0   
      0   0   0   0   0   
      0   0   0   0   0   
      0   0   0   0   0   
      0   0   0   0   0   
      0   0   0   0   0   
      0   0   0   0   0   
      0   0   0   0   0   
      0   0   0   0   0   
      0   0   0   0   0   
      0   0   0   0   0   
      0   0   0   0   0   
      0   0   0   0   0   
      0   0   0   0   0   
      0   0   0   0   0   
      0   0   0   0   0   
      0   0   0   0   0   
      0   0   0   0   0   
      0   0   0   0   0   
      0   0   0   0   0   
      0   0   0   0   0   
      0   0   0   0   0   
      0   0   0   0   0   
      0   0   0   0   0   
      0   0   0   0   0   
      0   0   0   0   0   
      0   0   0   0   0   
      0   0   0   0   0   
      0   0   0   0   0   
      0   0   0   0   0   
      0   0   0   0   0   
      0   0   0   0   0   
      0   0   0   0   0   
      0   0   0   0   0   
      0   0   0   0   0   
      0   0   0   0   0   
      0   0   0   0   0   
      0   0   0   0   0   
      0   0   0   0   0   
      0   0   0   0   0   
      0   0   0   0   0   
      0   0   0   0   0   
      0   0   0   0   0   
      0   0   0   0   0   
      0   0   0   0   0   
      0   0   0   0   0   
      0   0   0   0   0   
      0   0   0   0   0   
      0   0   0   0   0   
      0   0   0   0   0   
      0   0   0   0   0   
      0   0   0   0   0   
      0   0   0   0   0   
      0   0   0   0   0   
      0   0   0   0   0   
      0   0   0   0   0   
      0   0   0   0   0   
      0   0   0   0   0   
      0   0   0   0   0   
      0   0   0   0   0   
      0   0   0   0   0   
      0   0   0   0   0   
      0   0   0   0   0   
      0   0   0   0   0   
      0   0   0   0   0   
      0   0   0   0   0   
      0   0   0   0   0   
      0   0   0   0   0   
      0   0   0   0   0   
      0   0   0   0   0   
      0   0   0   0   0   
      0   0   0   0   0   
      0   0   0   0   0   
      0   0   0   0   0   
      0   0   0   0   0   
      0   0   0   0   0   
      0   0   0   0   0   
      0   0   0   0   0   
      0   0   0   0   0   
      0   0   0   0   0   
      0   0   0   0   0   
      0   0   0   0   0   
      0   0   0   0   0   
      0   0   0   0   0   
      0   0   0   0   0   
      0   0   0   0   0   
      0   0   0   0   0   
      0   0   0   0   0   
      0   0   0   0   0   
      0   0   0   0   0   
      0   0   0   0   0   
      0   0   0   0   0   
      0   0   0   0   0   
      0   0   0   0   0   
      0   0   0   0   0   
      0   0   0   0   0   
      0   0   0   0   0   
      0   0   0   0   0   
      0   0   0   0   0   
      0   0   0   0   0   
      0   0   0   0   0   
      0   0   0   0   0   
      0   0   0   0   0   
      0   0   0   0   0   
      0   0   0   0   0   
      0   0   0   0   0   
      0   0   0   0   0   
      0   0   0   0   0   
      0   0   0   0   0   
      0   0   0   0   0   
      0   0   0   0   0   
      0   0   0   0   0   
      0   0   0   0   0   
      0   0   0   0   0   
      0   0   0   0   0   
      0   0   0   0   0   
      0   0   0   0   0   
      0   0   0   0   0   
      0   0   0   0   0   
      0   0   0   0   0   
      0   0   0   0   0   
      0   0   0   0   0   
      0   0   0   0   0   
      0   0   0   0   0   
      0   0   0   0   0   
      0   0   0   0   0   
      0   0   0   0   0   
      0   0   0   0   0   
      0   0   0   0   0   
      0   0   0   0   0   
      0   0   0   0   0   
      0   0   0   0   0   
      0   0   0   0   0   
      0   0   0   0   0   
      0   0   0   0   0   
      0   0   0   0   0   
      0   0   0   0   0   
      0   0   0   0   0   
      0   0   0   0   0   
      0   0   0   0   0   
      0   0   0   0   0   
      0   0   0   0   0   
      0   0   0   0   0   
      0   0   0   0   0   
      0   0   0   0   0   
      0   0   0   0   0   
      0   0   0   0   0   
      0   0   0   0   0   
      0   0   0   0   0   
      0   0   0   0   0   
      0   0   0   0   0   
      0   0   0   0   0   
      0   0   0   0   0   
      0   0   0   0   0   
      0   0   0   0   0   
      0   0   0   0   0   
      0   0   0   0   0   
      0   0   0   0   0   
      0   0   0   0   0   
      0   0   0   0   0   
      0   0   0   0   0   
      0   0   0   0   0   
      0   0   0   0   0   
      0   0   0   0   0   
      0   0   0   0   0   
      0   0   0   0   0   
      0   0   0   0   0   
      0   0   0   0   0   
      0   0   0   0   0   
      0   0   0   0   0   
      0   0   0   0   0   
      0   0   0   0   0   
      0   0   0   0   0   
      0   0   0   0   0   
      0   0   0   0   0   
      0   0   0   0   0   
      0   0   0   0   0   
      0   0   0   0   0   
      0   0   0   0   0   
      0   0   0   0   0   
      0   0   0   0   0   
      0   0   0   0   0   
      0   0   0   0   0   
      0   0   0   0   0   
      0   0   0   0   0   
      0   0   0   0   0   
      0   0   0   0   0   
      0   0   0   0   0   
      0   0   0   0   0   
      0   0   0   0   0   
      0   0   0   0   0   
      0   0   0   0   0   
      0   0   0   0   0   
      0   0   0   0   0   
      0   0   0   0   0   
      0   0   0   0   0   
      0   0   0   0   0   
      0   0   0   0   0   
      0   0   0   0   0   
      0   0   0   0   0   
      0   0   0   0   0   
      0   0   0   0   0   
      0   0   0   0   0   
      0   0   0   0   0   
      0   0   0   0   0   
      0   0   0   0   0   
      0   0   0   0   0   
      0   0   0   0   0   
      0   0   0   0   0   
      0   0   0   0   0   
      0   0   0   0   0   
      0   0   0   0   0   
      0   0   0   0   0   
      0   0   0   0   0   
      0   0   0   0   0   
      0   0   0   0   0   
      0   0   0   0   0   
      0   0   0   0   0   
      0   0   0   0   0   
      0   0   0   0   0   
      0   0   0   0   0   
      0   0   0   0   0   
      0   0   0   0   0   
      0   0   0   0   0   
      0   0   0   0   0   
      0   0   0   0   0   
      0   0   0   0   0   
      0   0   0   0   0   
      0   0   0   0   0   
      0   0   0   0   0   
      0   0   0   0   0   
      0   0   0   0   0   
      0   0   0   0   0   
      0   0   0   0   0   
      0   0   0   0   0   
      0   0   0   0   0   
      0   0   0   0   0   
      0   0   0   0   0   
      0   0   0   0   0   
      0   0   0   0   0   
      0   0   0   0   0   
      0   0   0   0   0   
      0   0   0   0   0   
      0   0   0   0   0   
      0   0   0   0   0   
      0   0   0   0   0   
      0   0   0   0   0   
      0   0   0   0   0   
      0   0   0   0   0   
      0   0   0   0   0   
      0   0   0   0   0   
      0   0   0   0   0   
      0   0   0   0   0   
      0   0   0   0   0   
      0   0   0   0   0   
      0   0   0   0   0   
      0   0   0   0   0   
      0   0   0   0   0   
      0   0   0   0   0   
      0   0   0   0   0   
      0   0   0   0   0   
      0   0   0   0   0   
      0   0   0   0   0   
      0   0   0   0   0   
      0   0   0   0   0   
      0   0   0   0   0   
      0   0   0   0   0   
      0   0   0   0   0   
      0   0   0   0   0   
      0   0   0   0   0   
      0   0   0   0   0   
      0   0   0   0   0   
      0   0   0   0   0   
      0   0   0   0   0   
      0   0   0   0   0   
      0   0   0   0   0   
      0   0   0   0   0   
      0   0   0   0   0   
      0   0   0   0   0   
      0   0   0   0   0   
      0   0   0   0   0   
      0   0   0   0   0   
      0   0   0   0   0   
      0   0   0   0   0   
      0   0   0   0   0   
      0   0   0   0   0   
      0   0   0   0   0   
      0   0   0   0   0   
      0   0   0   0   0   
      0.572871846491   0.572861147658   0.572829085713   0.572775764636   0.572701358778   
      0.57260611442   0.572490351925   0.572354468457   0.5721989412   0.572024331042   
      0.571831286631   0.571620548707   0.571392954593   0.5711494427   0.57089105688   
      0.570618950417   0.570334389453   0.570038755584   0.569733547366   0.569420380444   
      0.569100986022   0.568777207376   0.56845099415   0.568124394184   0.567799542688   
      0.567478648621   0.567163978218   0.566857835695   0.566562541269   0.56628040672   
      0.56601370887   0.565764661417   0.565535385693   0.565327881005   0.565143995252   
      0.564985396587   0.564853546894   0.564749677825   0.564674770105   0.564629536726   
      0.564614410552   0.564629536726   0.564674770105   0.564749677825   0.564853546894   
      0.564985396587   0.565143995252   0.565327881005   0.565535385693   0.565764661417   
      0.56601370887   0.56628040672   0.566562541269   0.566857835695   0.567163978218   
      0.567478648621   0.567799542688   0.568124394184   0.56845099415   0.568777207376   
      0.569100986022   0.569420380444   0.569733547366   0.570038755584   0.570334389453   
      0.570618950417   0.57089105688   0.5711494427   0.571392954593   0.571620548707   
      0.571831286631   0.572024331042   0.5721989412   0.572354468457   0.572490351925   
      0.57260611442   0.572701358778   0.572775764636   0.572829085713   0.572861147658   
      0.460858286252   0.460843444158   0.460798965526   0.460724993769   0.460621769448   
      0.460489632561   0.460329025687   0.460140497953   0.459924709732   0.459682437992   
      0.459414582163   0.459122170385   0.458806365949   0.458468473718   0.458109946268   
      0.457732389482   0.457337567243   0.456927404902   0.456503991119   0.456069577699   
      0.455626577015   0.455177556635   0.454725230804   0.454272448465   0.45382217758   
      0.453377485619   0.452941516162   0.452517461702   0.452108532894   0.45171792459   
      0.451348779195   0.451004147988   0.450686951184   0.450399937622   0.450145645019   
      0.449926361805   0.449744091527   0.449600520805   0.449496991725   0.449434479487   
      0.449413575937   0.449434479487   0.449496991725   0.449600520805   0.449744091527   
      0.449926361805   0.450145645019   0.450399937622   0.450686951184   0.451004147988   
      0.451348779195   0.45171792459   0.452108532894   0.452517461702   0.452941516162   
      0.453377485619   0.45382217758   0.454272448465   0.454725230804   0.455177556635   
      0.455626577015   0.456069577699   0.456503991119   0.456927404902   0.457337567243   
      0.457732389482   0.458109946268   0.458468473718   0.458806365949   0.459122170385   
      0.459414582163   0.459682437992   0.459924709732   0.460140497953   0.460329025687   
      0.460489632561   0.460621769448   0.460724993769   0.460798965526   0.460843444158   
      0.43576781435   0.43574863004   0.435691140941   0.43559553914   0.435462146719   
      0.43529141863   0.435083946646   0.434840464303   0.434561852742   0.434249147302   
      0.4339035447   0.433526410589   0.433119287243   0.432683901082   0.432222169695   
      0.431736207984   0.431228333019   0.430701067146   0.430157138889   0.429599481152   
      0.429031226275   0.42845569747   0.427876396281   0.427296985723   0.42672126889   
      0.426153162941   0.425596668478   0.425055834541   0.424534719541   0.424037348681   
      0.423567668518   0.423129499513   0.422726487494   0.4223620551   0.422039354286   
      0.42176122105   0.421530133477   0.421348174174   0.421216998076   0.421137806459   
      0.421111327869   0.421137806459   0.421216998076   0.421348174174   0.421530133477   
      0.42176122105   0.422039354286   0.4223620551   0.422726487494   0.423129499513   
      0.423567668518   0.424037348681   0.424534719541   0.425055834541   0.425596668478   
      0.426153162941   0.42672126889   0.427296985723   0.427876396281   0.42845569747   
      0.429031226275   0.429599481152   0.430157138889   0.430701067146   0.431228333019   
      0.431736207984   0.432222169695   0.432683901082   0.433119287243   0.433526410589   
      0.4339035447   0.434249147302   0.434561852742   0.434840464303   0.435083946646   
      0.43529141863   0.435462146719   0.43559553914   0.435691140941   0.43574863004   
      0.410921189643   0.410897704453   0.410827331044   0.410710316576   0.410547075219   
      0.410338191451   0.410084424579   0.409786714369   0.409446187634   0.409064165617   
      0.408642171918   0.408181940711   0.40768542492   0.407154803989   0.406592490826   
      0.406001137458   0.405383638901   0.404743134716   0.404083007728   0.403406879356   
      0.402718601074   0.402022241537   0.401322069013   0.400622528839   0.399928215763   
      0.399243841177   0.398574195406   0.397924105399   0.397298388321   0.396701801744   
      0.396138991258   0.39561443647   0.395132396458   0.394696855798   0.394311472347   
      0.393979527916   0.393703882959   0.393486936306   0.393330590866   0.393236226088   
      0.393204677831   0.393236226088   0.393330590866   0.393486936306   0.393703882959   
      0.393979527916   0.394311472347   0.394696855798   0.395132396458   0.39561443647   
      0.396138991258   0.396701801744   0.397298388321   0.397924105399   0.398574195406   
      0.399243841177   0.399928215763   0.400622528839   0.401322069013   0.402022241537   
      0.402718601074   0.403406879356   0.404083007728   0.404743134716   0.405383638901   
      0.406001137458   0.406592490826   0.407154803989   0.40768542492   0.408181940711   
      0.408642171918   0.409064165617   0.409446187634   0.409786714369   0.410084424579   
      0.410338191451   0.410547075219   0.410710316576   0.410827331044   0.410897704453   
      0.391436832871   0.391410128255   0.391330112818   0.391197082507   0.391011532915   
      0.390774162741   0.390485878498   0.390147800344   0.389761268833   0.389327852397   
      0.388849355237   0.388327825334   0.387765562174   0.387165123765   0.386529332469   
      0.385861279118   0.385164324884   0.384442100322   0.383698501045   0.382937679483   
      0.382164032267   0.381382182816   0.380596958838   0.37981336459   0.379036547847   
      0.378271761768   0.377524321942   0.376799559144   0.376102768435   0.375439155438   
      0.374813780717   0.374231503283   0.373696924323   0.373214332255   0.372787650212   
      0.372420386993   0.372115592466   0.371875818292   0.371703084735   0.371598854181   
      0.371564011866   0.371598854181   0.371703084735   0.371875818292   0.372115592466   
      0.372420386993   0.372787650212   0.373214332255   0.373696924323   0.374231503283   
      0.374813780717   0.375439155438   0.376102768435   0.376799559144   0.377524321942   
      0.378271761768   0.379036547847   0.37981336459   0.380596958838   0.381382182816   
      0.382164032267   0.382937679483   0.383698501045   0.384442100322   0.385164324884   
      0.385861279118   0.386529332469   0.387165123765   0.387765562174   0.388327825334   
      0.388849355237   0.389327852397   0.389761268833   0.390147800344   0.390485878498   
      0.390774162741   0.391011532915   0.391197082507   0.391330112818   0.391410128255   
      0.376218811528   0.376189937016   0.376103424879   0.375959610033   0.375759053014   
      0.375502543422   0.375191104579   0.374825999246   0.374408736187   0.373941077314   
      0.3734250451   0.372862929876   0.372257296594   0.371610990575   0.370927141723   
      0.370209166649   0.369460768132   0.368685931357   0.367888916371   0.367074246257   
      0.366246690619   0.365411244032   0.364573099278   0.363737615329   0.36291028018   
      0.362096668852   0.361302397019   0.360533070904   0.359794234227   0.359091313103   
      0.358429559874   0.35781399693   0.357249361533   0.356740052702   0.356290081091   
      0.355903022766   0.355581977632   0.355329533205   0.355147734257   0.355038058778   
      0.355001400581   0.355038058778   0.355147734257   0.355329533205   0.355581977632   
      0.355903022766   0.356290081091   0.356740052702   0.357249361533   0.35781399693   
      0.358429559874   0.359091313103   0.359794234227   0.360533070904   0.361302397019   
      0.362096668852   0.36291028018   0.363737615329   0.364573099278   0.365411244032   
      0.366246690619   0.367074246257   0.367888916371   0.368685931357   0.369460768132   
      0.370209166649   0.370927141723   0.371610990575   0.372257296594   0.372862929876   
      0.3734250451   0.373941077314   0.374408736187   0.374825999246   0.375191104579   
      0.375502543422   0.375759053014   0.375959610033   0.376103424879   0.376189937016   
      0.365277128126   0.365246941204   0.365156501242   0.365006171347   0.364796558983   
      0.364528519309   0.364203159678   0.36382184511   0.363386204504   0.3628981373   
      0.36235982023   0.361773713769   0.361142567801   0.360469426012   0.359757628457   
      0.359010811728   0.358232906154   0.357428129463   0.356600976393   0.355756203791   
      0.354898810855   0.354034014261   0.35316721811   0.352303978754   0.351449964755   
      0.350610912408   0.349792577412   0.349000683446   0.348240868512   0.34751862999   
      0.346839269426   0.346207838045   0.345629083976   0.345107402097   0.344646787318   
      0.344250792005   0.343922488135   0.343664434641   0.343478650306   0.343366592462   
      0.343329141665   0.343366592462   0.343478650306   0.343664434641   0.343922488135   
      0.344250792005   0.344646787318   0.345107402097   0.345629083976   0.346207838045   
      0.346839269426   0.34751862999   0.348240868512   0.349000683446   0.349792577412   
      0.350610912408   0.351449964755   0.352303978754   0.35316721811   0.354034014261   
      0.354898810855   0.355756203791   0.356600976393   0.357428129463   0.358232906154   
      0.359010811728   0.359757628457   0.360469426012   0.361142567801   0.361773713769   
      0.36235982023   0.3628981373   0.363386204504   0.36382184511   0.364203159678   
      0.364528519309   0.364796558983   0.365006171347   0.365156501242   0.365246941204   
      0.358277709782   0.358246806805   0.358154224739   0.358000344852   0.35778580481   
      0.357511501905   0.357178597387   0.356788521692   0.356342980329   0.355843960096   
      0.355293735259   0.354694873269   0.354050239528   0.353363000681   0.352636625875   
      0.351874885408   0.351081846195   0.350261863506   0.349419568478   0.348559850995   
      0.347687837635   0.346808864506   0.345928444984   0.345052232497   0.34418597872   
      0.343335487676   0.342506566444   0.341704973282   0.340936364071   0.340206238083   
      0.339519884042   0.33888232748   0.338298280285   0.337772093254   0.337307712365   
      0.336908639323   0.336577896819   0.336317998831   0.336130926154   0.336018107312   
      0.335980404884   0.336018107312   0.336130926154   0.336317998831   0.336577896819   
      0.336908639323   0.337307712365   0.337772093254   0.338298280285   0.33888232748   
      0.339519884042   0.340206238083   0.340936364071   0.341704973282   0.342506566444   
      0.343335487676   0.34418597872   0.345052232497   0.345928444984   0.346808864506   
      0.347687837635   0.348559850995   0.349419568478   0.350261863506   0.351081846195   
      0.351874885408   0.352636625875   0.353363000681   0.354050239528   0.354694873269   
      0.355293735259   0.355843960096   0.356342980329   0.356788521692   0.357178597387   
      0.357511501905   0.35778580481   0.358000344852   0.358154224739   0.358246806805   
      0.354882808357   0.354851595718   0.354758087633   0.354602674254   0.354386008009   
      0.354109006767   0.353772858063   0.353379024183   0.352929247856   0.352425558208   
      0.351870276617   0.351266022012   0.350615715132   0.349922581208   0.349190150504   
      0.348422256141   0.34762302863   0.346796886581   0.345948523113   0.345082887575   
      0.344205162303   0.343320734306   0.342435161892   0.341554136464   0.340683439878   
      0.339828897927   0.338996330666   0.338191500444   0.337420058567   0.336687491588   
      0.335999068219   0.335359787805   0.334774331243   0.334247015113   0.333781749636   
      0.333382000974   0.333050758226   0.332790505345   0.33260319813   0.332490246334   
      0.332452500903   0.332490246334   0.33260319813   0.332790505345   0.333050758226   
      0.333382000974   0.333781749636   0.334247015113   0.334774331243   0.335359787805   
      0.335999068219   0.336687491588   0.337420058567   0.338191500444   0.338996330666   
      0.339828897927   0.340683439878   0.341554136464   0.342435161892   0.343320734306   
      0.344205162303   0.345082887575   0.345948523113   0.346796886581   0.34762302863   
      0.348422256141   0.349190150504   0.349922581208   0.350615715132   0.351266022012   
      0.351870276617   0.352425558208   0.352929247856   0.353379024183   0.353772858063   
      0.354109006767   0.354386008009   0.354602674254   0.354758087633   0.354851595718   
      0.354882808357   0.354851595718   0.354758087633   0.354602674254   0.354386008009   
      0.354109006767   0.353772858063   0.353379024183   0.352929247856   0.352425558208   
      0.351870276617   0.351266022012   0.350615715132   0.349922581208   0.349190150504   
      0.348422256141   0.34762302863   0.346796886581   0.345948523113   0.345082887575   
      0.344205162303   0.343320734306   0.342435161892   0.341554136464   0.340683439878   
      0.339828897927   0.338996330666   0.338191500444   0.337420058567   0.336687491588   
      0.335999068219   0.335359787805   0.334774331243   0.334247015113   0.333781749636   
      0.333382000974   0.333050758226   0.332790505345   0.33260319813   0.332490246334   
      0.332452500903   0.332490246334   0.33260319813   0.332790505345   0.333050758226   
      0.333382000974   0.333781749636   0.334247015113   0.334774331243   0.335359787805   
      0.335999068219   0.336687491588   0.337420058567   0.338191500444   0.338996330666   
      0.339828897927   0.340683439878   0.341554136464   0.342435161892   0.343320734306   
      0.344205162303   0.345082887575   0.345948523113   0.346796886581   0.34762302863   
      0.348422256141   0.349190150504   0.349922581208   0.350615715132   0.351266022012   
      0.351870276617   0.352425558208   0.352929247856   0.353379024183   0.353772858063   
      0.354109006767   0.354386008009   0.354602674254   0.354758087633   0.354851595718   
      0.358277709782   0.358246806805   0.358154224739   0.358000344852   0.35778580481   
      0.357511501905   0.357178597387   0.356788521692   0.356342980329   0.355843960096   
      0.355293735259   0.354694873269   0.354050239528   0.353363000681   0.352636625875   
      0.351874885408   0.351081846195   0.350261863506   0.349419568478   0.348559850995   
      0.347687837635   0.346808864506   0.345928444984   0.345052232497   0.34418597872   
      0.343335487676   0.342506566444   0.341704973282   0.340936364071   0.340206238083   
      0.339519884042   0.33888232748   0.338298280285   0.337772093254   0.337307712365   
      0.336908639323   0.336577896819   0.336317998831   0.336130926154   0.336018107312   
      0.335980404884   0.336018107312   0.336130926154   0.336317998831   0.336577896819   
      0.336908639323   0.337307712365   0.337772093254   0.338298280285   0.33888232748   
      0.339519884042   0.340206238083   0.340936364071   0.341704973282   0.342506566444   
      0.343335487676   0.34418597872   0.345052232497   0.345928444984   0.346808864506   
      0.347687837635   0.348559850995   0.349419568478   0.350261863506   0.351081846195   
      0.351874885408   0.352636625875   0.353363000681   0.354050239528   0.354694873269   
      0.355293735259   0.355843960096   0.356342980329   0.356788521692   0.357178597387   
      0.357511501905   0.35778580481   0.358000344852   0.358154224739   0.358246806805   
      0.365277128126   0.365246941204   0.365156501242   0.365006171347   0.364796558983   
      0.364528519309   0.364203159678   0.36382184511   0.363386204504   0.3628981373   
      0.36235982023   0.361773713769   0.361142567801   0.360469426012   0.359757628457   
      0.359010811728   0.358232906154   0.357428129463   0.356600976393   0.355756203791   
      0.354898810855   0.354034014261   0.35316721811   0.352303978754   0.351449964755   
      0.350610912408   0.349792577412   0.349000683446   0.348240868512   0.34751862999   
      0.346839269426   0.346207838045   0.345629083976   0.345107402097   0.344646787318   
      0.344250792005   0.343922488135   0.343664434641   0.343478650306   0.343366592462   
      0.343329141665   0.343366592462   0.343478650306   0.343664434641   0.343922488135   
      0.344250792005   0.344646787318   0.345107402097   0.345629083976   0.346207838045   
      0.346839269426   0.34751862999   0.348240868512   0.349000683446   0.349792577412   
      0.350610912408   0.351449964755   0.352303978754   0.35316721811   0.354034014261   
      0.354898810855   0.355756203791   0.356600976393   0.357428129463   0.358232906154   
      0.359010811728   0.359757628457   0.360469426012   0.361142567801   0.361773713769   
      0.36235982023   0.3628981373   0.363386204504   0.36382184511   0.364203159678   
      0.364528519309   0.364796558983   0.365006171347   0.365156501242   0.365246941204   
      0.376218811528   0.376189937016   0.376103424879   0.375959610033   0.375759053014   
      0.375502543422   0.375191104579   0.374825999246   0.374408736187   0.373941077314   
      0.3734250451   0.372862929876   0.372257296594   0.371610990575   0.370927141723   
      0.370209166649   0.369460768132   0.368685931357   0.367888916371   0.367074246257   
      0.366246690619   0.365411244032   0.364573099278   0.363737615329   0.36291028018   
      0.362096668852   0.361302397019   0.360533070904   0.359794234227   0.359091313103   
      0.358429559874   0.35781399693   0.357249361533   0.356740052702   0.356290081091   
      0.355903022766   0.355581977632   0.355329533205   0.355147734257   0.355038058778   
      0.355001400581   0.355038058778   0.355147734257   0.355329533205   0.355581977632   
      0.355903022766   0.356290081091   0.356740052702   0.357249361533   0.35781399693   
      0.358429559874   0.359091313103   0.359794234227   0.360533070904   0.361302397019   
      0.362096668852   0.36291028018   0.363737615329   0.364573099278   0.365411244032   
      0.366246690619   0.367074246257   0.367888916371   0.368685931357   0.369460768132   
      0.370209166649   0.370927141723   0.371610990575   0.372257296594   0.372862929876   
      0.3734250451   0.373941077314   0.374408736187   0.374825999246   0.375191104579   
      0.375502543422   0.375759053014   0.375959610033   0.376103424879   0.376189937016   
      0.391436832871   0.391410128255   0.391330112818   0.391197082507   0.391011532915   
      0.390774162741   0.390485878498   0.390147800344   0.389761268833   0.389327852397   
      0.388849355237   0.388327825334   0.387765562174   0.387165123765   0.386529332469   
      0.385861279118   0.385164324884   0.384442100322   0.383698501045   0.382937679483   
      0.382164032267   0.381382182816   0.380596958838   0.37981336459   0.379036547847   
      0.378271761768   0.377524321942   0.376799559144   0.376102768435   0.375439155438   
      0.374813780717   0.374231503283   0.373696924323   0.373214332255   0.372787650212   
      0.372420386993   0.372115592466   0.371875818292   0.371703084735   0.371598854181   
      0.371564011866   0.371598854181   0.371703084735   0.371875818292   0.372115592466   
      0.372420386993   0.372787650212   0.373214332255   0.373696924323   0.374231503283   
      0.374813780717   0.375439155438   0.376102768435   0.376799559144   0.377524321942   
      0.378271761768   0.379036547847   0.37981336459   0.380596958838   0.381382182816   
      0.382164032267   0.382937679483   0.383698501045   0.384442100322   0.385164324884   
      0.385861279118   0.386529332469   0.387165123765   0.387765562174   0.388327825334   
      0.388849355237   0.389327852397   0.389761268833   0.390147800344   0.390485878498   
      0.390774162741   0.391011532915   0.391197082507   0.391330112818   0.391410128255   
      0.410921189643   0.410897704453   0.410827331044   0.410710316576   0.410547075219   