<?xml version="1.0"?>
<VTKFile type="ImageData" version="0.1" byte_order="LittleEndian">
  <ImageData WholeExtent="0 79 0 19 0 19" Origin="0 0 0" Spacing="1 1 1">
  <Piece Extent="0 79 0 19 0 19">
    <PointData Scalars="density">
       <DataArray type="Float32" Name="bluedensity" NumberOfComponents="1" format="ascii">
      0   0   0   0   0   
      0   0   0   0   0   
      0   0   0   0   0   
      0   0   0   0   0   
      0   0   0   0   0   
      0   0   0   0   0   
      0   0   0   0   0   
      0   0   0   0   0   
      0   0   0   0   0   
      0   0   0   0   0   
      0   0   0   0   0   
      0   0   0   0   0   
      0   0   0   0   0   
      0   0   0   0   0   
      0   0   0   0   0   
      0   0   0   0   0   
      0   0   0   0   0   
      0   0   0   0   0   
      0   0   0   0   0   
      0   0   0   0   0   
      0   0   0   0   0   
      0   0   0   0   0   
      0   0   0   0   0   
      0   0   0   0   0   
      0   0   0   0   0   
      0   0   0   0   0   
      0   0   0   0   0   
      0   0   0   0   0   
      0   0   0   0   0   
      0   0   0   0   0   
      0   0   0   0   0   
      0   0   0   0   0   
      0   0   0   0   0   
      0   0   0   0   0   
      0   0   0   0   0   
      0   0   0   0   0   
      0   0   0   0   0   
      0   0   0   0   0   
      0   0   0   0   0   
      0   0   0   0   0   
      0   0   0   0   0   
      0   0   0   0   0   
      0   0   0   0   0   
      0   0   0   0   0   
      0   0   0   0   0   
      0   0   0   0   0   
      0   0   0   0   0   
      0   0   0   0   0   
      0   0   0   0   0   
      0   0   0   0   0   
      0   0   0   0   0   
      0   0   0   0   0   
      0   0   0   0   0   
      0   0   0   0   0   
      0   0   0   0   0   
      0   0   0   0   0   
      0   0   0   0   0   
      0   0   0   0   0   
      0   0   0   0   0   
      0   0   0   0   0   
      0   0   0   0   0   
      0   0   0   0   0   
      0   0   0   0   0   
      0   0   0   0   0   
      0   0   0   0   0   
      0   0   0   0   0   
      0   0   0   0   0   
      0   0   0   0   0   
      0   0   0   0   0   
      0   0   0   0   0   
      0   0   0   0   0   
      0   0   0   0   0   
      0   0   0   0   0   
      0   0   0   0   0   
      0   0   0   0   0   
      0   0   0   0   0   
      0   0   0   0   0   
      0   0   0   0   0   
      0   0   0   0   0   
      0   0   0   0   0   
      0   0   0   0   0   
      0   0   0   0   0   
      0   0   0   0   0   
      0   0   0   0   0   
      0   0   0   0   0   
      0   0   0   0   0   
      0   0   0   0   0   
      0   0   0   0   0   
      0   0   0   0   0   
      0   0   0   0   0   
      0   0   0   0   0   
      0   0   0   0   0   
      0   0   0   0   0   
      0   0   0   0   0   
      0   0   0   0   0   
      0   0   0   0   0   
      0   0   0   0   0   
      0   0   0   0   0   
      0   0   0   0   0   
      0   0   0   0   0   
      0   0   0   0   0   
      0   0   0   0   0   
      0   0   0   0   0   
      0   0   0   0   0   
      0   0   0   0   0   
      0   0   0   0   0   
      0   0   0   0   0   
      0   0   0   0   0   
      0   0   0   0   0   
      0   0   0   0   0   
      0   0   0   0   0   
      0   0   0   0   0   
      0   0   0   0   0   
      0   0   0   0   0   
      0   0   0   0   0   
      0   0   0   0   0   
      0   0   0   0   0   
      0   0   0   0   0   
      0   0   0   0   0   
      0   0   0   0   0   
      0   0   0   0   0   
      0   0   0   0   0   
      0   0   0   0   0   
      0   0   0   0   0   
      0   0   0   0   0   
      0   0   0   0   0   
      0   0   0   0   0   
      0   0   0   0   0   
      0   0   0   0   0   
      0   0   0   0   0   
      0   0   0   0   0   
      0   0   0   0   0   
      0   0   0   0   0   
      0   0   0   0   0   
      0   0   0   0   0   
      0   0   0   0   0   
      0   0   0   0   0   
      0   0   0   0   0   
      0   0   0   0   0   
      0   0   0   0   0   
      0   0   0   0   0   
      0   0   0   0   0   
      0   0   0   0   0   
      0   0   0   0   0   
      0   0   0   0   0   
      0   0   0   0   0   
      0   0   0   0   0   
      0   0   0   0   0   
      0   0   0   0   0   
      0   0   0   0   0   
      0   0   0   0   0   
      0   0   0   0   0   
      0   0   0   0   0   
      0   0   0   0   0   
      0   0   0   0   0   
      0   0   0   0   0   
      0   0   0   0   0   
      0   0   0   0   0   
      0   0   0   0   0   
      0   0   0   0   0   
      0   0   0   0   0   
      0   0   0   0   0   
      0   0   0   0   0   
      0   0   0   0   0   
      0   0   0   0   0   
      0   0   0   0   0   
      0   0   0   0   0   
      0   0   0   0   0   
      0   0   0   0   0   
      0   0   0   0   0   
      0   0   0   0   0   
      0   0   0   0   0   
      0   0   0   0   0   
      0   0   0   0   0   
      0   0   0   0   0   
      0   0   0   0   0   
      0   0   0   0   0   
      0   0   0   0   0   
      0   0   0   0   0   
      0   0   0   0   0   
      0   0   0   0   0   
      0   0   0   0   0   
      0   0   0   0   0   
      0   0   0   0   0   
      0   0   0   0   0   
      0   0   0   0   0   
      0   0   0   0   0   
      0   0   0   0   0   
      0   0   0   0   0   
      0   0   0   0   0   
      0   0   0   0   0   
      0   0   0   0   0   
      0   0   0   0   0   
      0   0   0   0   0   
      0   0   0   0   0   
      0   0   0   0   0   
      0   0   0   0   0   
      0   0   0   0   0   
      0   0   0   0   0   
      0   0   0   0   0   
      0   0   0   0   0   
      0   0   0   0   0   
      0   0   0   0   0   
      0   0   0   0   0   
      0   0   0   0   0   
      0   0   0   0   0   
      0   0   0   0   0   
      0   0   0   0   0   
      0   0   0   0   0   
      0   0   0   0   0   
      0   0   0   0   0   
      0   0   0   0   0   
      0   0   0   0   0   
      0   0   0   0   0   
      0   0   0   0   0   
      0   0   0   0   0   
      0   0   0   0   0   
      0   0   0   0   0   
      0   0   0   0   0   
      0   0   0   0   0   
      0   0   0   0   0   
      0   0   0   0   0   
      0   0   0   0   0   
      0   0   0   0   0   
      0   0   0   0   0   
      0   0   0   0   0   
      0   0   0   0   0   
      0   0   0   0   0   
      0   0   0   0   0   
      0   0   0   0   0   
      0   0   0   0   0   
      0   0   0   0   0   
      0   0   0   0   0   
      0   0   0   0   0   
      0   0   0   0   0   
      0   0   0   0   0   
      0   0   0   0   0   
      0   0   0   0   0   
      0   0   0   0   0   
      0   0   0   0   0   
      0   0   0   0   0   
      0   0   0   0   0   
      0   0   0   0   0   
      0   0   0   0   0   
      0   0   0   0   0   
      0   0   0   0   0   
      0   0   0   0   0   
      0   0   0   0   0   
      0   0   0   0   0   
      0   0   0   0   0   
      0   0   0   0   0   
      0   0   0   0   0   
      0   0   0   0   0   
      0   0   0   0   0   
      0   0   0   0   0   
      0   0   0   0   0   
      0   0   0   0   0   
      0   0   0   0   0   
      0   0   0   0   0   
      0   0   0   0   0   
      0   0   0   0   0   
      0   0   0   0   0   
      0   0   0   0   0   
      0   0   0   0   0   
      0   0   0   0   0   
      0   0   0   0   0   
      0   0   0   0   0   
      0   0   0   0   0   
      0   0   0   0   0   
      0   0   0   0   0   
      0   0   0   0   0   
      0   0   0   0   0   
      0   0   0   0   0   
      0   0   0   0   0   
      0   0   0   0   0   
      0   0   0   0   0   
      0   0   0   0   0   
      0   0   0   0   0   
      0   0   0   0   0   
      0   0   0   0   0   
      0   0   0   0   0   
      0   0   0   0   0   
      0   0   0   0   0   
      0   0   0   0   0   
      0   0   0   0   0   
      0   0   0   0   0   
      0   0   0   0   0   
      0   0   0   0   0   
      0   0   0   0   0   
      0   0   0   0   0   
      0   0   0   0   0   
      0   0   0   0   0   
      0   0   0   0   0   
      0   0   0   0   0   
      0   0   0   0   0   
      0   0   0   0   0   
      0   0   0   0   0   
      0   0   0   0   0   
      0   0   0   0   0   
      0   0   0   0   0   
      0   0   0   0   0   
      0   0   0   0   0   
      0   0   0   0   0   
      0   0   0   0   0   
      0   0   0   0   0   
      0   0   0   0   0   
      0   0   0   0   0   
      0   0   0   0   0   
      0   0   0   0   0   
      0   0   0   0   0   
      0   0   0   0   0   
      0   0   0   0   0   
      0   0   0   0   0   
      0   0   0   0   0   
      0   0   0   0   0   
      0   0   0   0   0   
      0   0   0   0   0   
      0   0   0   0   0   
      0   0   0   0   0   
      0   0   0   0   0   
      0   0   0   0   0   
      0   0   0   0   0   
      0   0   0   0   0   
      0   0   0   0   0   
      0   0   0   0   0   
      0   0   0   0   0   
      0   0   0   0   0   
      0   0   0   0   0   
      0   0   0   0   0   
      0   0   0   0   0   
      0   0   0   0   0   
      0   0   0   0   0   
      0   0   0   0   0   
      0   0   0   0   0   
      0   0   0   0   0   
      0   0   0   0   0   
      0.572320719272   0.572311470626   0.572283758332   0.572237683532   0.572173415504   
      0.572091192709   0.571991324224   0.571874191526   0.571740250576   0.571590034162   
      0.571424154401   0.571243305344   0.571048265557   0.570839900569   0.570619165054   
      0.57038710459   0.570144856831   0.569893651913   0.569634811913   0.569369749157   
      0.569099963206   0.568827036331   0.568552627317   0.568278463465   0.568006330696   
      0.567738061699   0.567475522135   0.567220594951   0.566975162951   0.566741089808   
      0.566520199803   0.566314256631   0.566124941673   0.565953832181   0.565802379877   
      0.565671890473   0.565563504621   0.565478180805   0.565416680622   0.565379556884   
      0.565367144853   0.565379556884   0.565416680622   0.565478180805   0.565563504621   
      0.565671890473   0.565802379877   0.565953832181   0.566124941673   0.566314256631   
      0.566520199803   0.566741089808   0.566975162951   0.567220594951   0.567475522135   
      0.567738061699   0.568006330696   0.568278463465   0.568552627317   0.568827036331   
      0.569099963206   0.569369749157   0.569634811913   0.569893651913   0.570144856831   
      0.57038710459   0.570619165054   0.570839900569   0.571048265557   0.571243305344   
      0.571424154401   0.571590034162   0.571740250576   0.571874191526   0.571991324224   
      0.572091192709   0.572173415504   0.572237683532   0.572283758332   0.572311470626   
      0.46008086985   0.460068037342   0.460029586362   0.459965656863   0.459876483132   
      0.459762395317   0.459623821518   0.459461290372   0.459275434091   0.459066991843   
      0.458836813365   0.458585862706   0.458315221911   0.458026094503   0.457719808542   
      0.457397819059   0.457061709619   0.456713192762   0.456354109063   0.45598642455   
      0.455612226216   0.455233715403   0.454853198826   0.454473077096   0.454095830602   
      0.45372400273   0.453360180424   0.453006972219   0.452666983946   0.452342792406   
      0.452036917408   0.451751792642   0.451489735951   0.451252919596   0.451043341193   
      0.450862795993   0.45071285117   0.45059482279   0.450509756048   0.450458409308   
      0.450441242371   0.450458409308   0.450509756048   0.45059482279   0.45071285117   
      0.450862795993   0.451043341193   0.451252919596   0.451489735951   0.451751792642   
      0.452036917408   0.452342792406   0.452666983946   0.453006972219   0.453360180424   
      0.45372400273   0.454095830602   0.454473077096   0.454853198826   0.455233715403   
      0.455612226216   0.45598642455   0.456354109063   0.456713192762   0.457061709619   
      0.457397819059   0.457719808542   0.458026094503   0.458315221911   0.458585862706   
      0.458836813365   0.459066991843   0.459275434091   0.459461290372   0.459623821518   
      0.459762395317   0.459876483132   0.459965656863   0.460029586362   0.460068037342   
      0.434754526778   0.434737957034   0.434688309663   0.434605770641   0.434490651195   
      0.434343389687   0.43416455416   0.4339548455   0.433715101101   0.433446298917   
      0.433149561754   0.432826161628   0.432477523978   0.432105231514   0.43171102744   
      0.431296817769   0.430864672427   0.430416824845   0.429955669708   0.429483758553   
      0.429003792922   0.42851861479   0.428031194063   0.427544612956   0.427062047184   
      0.426586743928   0.426121996683   0.425671117173   0.425237404612   0.424824112746   
      0.424434415139   0.424071369338   0.423737880556   0.423436665625   0.423170217975   
      0.422940774425   0.422750284553   0.422600383364   0.422492367935   0.422427178609   
      0.422405385206   0.422427178609   0.422492367935   0.422600383364   0.422750284553   
      0.422940774425   0.423170217975   0.423436665625   0.423737880556   0.424071369338   
      0.424434415139   0.424824112746   0.425237404612   0.425671117173   0.426121996683   
      0.426586743928   0.427062047184   0.427544612956   0.428031194063   0.42851861479   
      0.429003792922   0.429483758553   0.429955669708   0.430416824845   0.430864672427   
      0.431296817769   0.43171102744   0.432105231514   0.432477523978   0.432826161628   
      0.433149561754   0.433446298917   0.433715101101   0.4339548455   0.43416455416   
      0.434343389687   0.434490651195   0.434605770641   0.434688309663   0.434737957034   
      0.409673928021   0.409653674376   0.409592992155   0.409492117925   0.409351447383   
      0.409171537434   0.408953109004   0.408697050502   0.408404421784   0.408076458485   
      0.407714576515   0.407320376505   0.406895647946   0.406442372742   0.405962727862   
      0.405459086761   0.404934019211   0.404390289201   0.403830850527   0.403258839756   
      0.402677566234   0.402090498882   0.401501249581   0.400913553003   0.400331242856   
      0.399758224606   0.399198444847   0.398655857593   0.39813438791   0.397637893368   
      0.397170123938   0.396734681009   0.396334976282   0.39597419133   0.395655238646   
      0.395380724979   0.395152917749   0.39497371526   0.394844621369   0.394766725172   
      0.394740686158   0.394766725172   0.394844621369   0.39497371526   0.395152917749   
      0.395380724979   0.395655238646   0.39597419133   0.396334976282   0.396734681009   
      0.397170123938   0.397637893368   0.39813438791   0.398655857593   0.399198444847   
      0.399758224606   0.400331242856   0.400913553003   0.401501249581   0.402090498882   
      0.402677566234   0.403258839756   0.403830850527   0.404390289201   0.404934019211   
      0.405459086761   0.405962727862   0.406442372742   0.406895647946   0.407320376505   
      0.407714576515   0.408076458485   0.408404421784   0.408697050502   0.408953109004   
      0.409171537434   0.409351447383   0.409492117925   0.409592992155   0.409653674376   
      0.390013810348   0.38999081867   0.389921936817   0.389807444758   0.389647810539   
      0.389443692353   0.389195941342   0.388905604992   0.388573930976   0.388202371267   
      0.387792586282   0.387346448817   0.38686604747   0.386353689236   0.385811900933   
      0.385243429075   0.38465123784   0.384038504746   0.383408613665   0.38276514487   
      0.382111861799   0.381452694325   0.38079171838   0.38013313187   0.379481226917   
      0.378840358593   0.3782149104   0.377609256877   0.377027723827   0.376474546733   
      0.375953828043   0.375469494029   0.375025252013   0.374624548713   0.374270530524   
      0.373966006457   0.373713414458   0.373514791757   0.373371749798   0.373285454229   
      0.373256610344   0.373285454229   0.373371749798   0.373514791757   0.373713414458   
      0.373966006457   0.374270530524   0.374624548713   0.375025252013   0.375469494029   
      0.375953828043   0.376474546733   0.377027723827   0.377609256877   0.3782149104   
      0.378840358593   0.379481226917   0.38013313187   0.38079171838   0.381452694325   
      0.382111861799   0.38276514487   0.383408613665   0.384038504746   0.38465123784   
      0.385243429075   0.385811900933   0.386353689236   0.38686604747   0.387346448817   
      0.387792586282   0.388202371267   0.388573930976   0.388905604992   0.389195941342   
      0.389443692353   0.389647810539   0.389807444758   0.389921936817   0.38999081867   
      0.374676881066   0.374652059744   0.374577700205   0.374454116144   0.374281831736   
      0.3740615836   0.373794323406   0.373481221016   0.373123667957   0.372723281047   
      0.372281905903   0.371801620058   0.371284735369   0.370733799369   0.370151595196   
      0.369541139726   0.368905679513   0.368248684183   0.36757383693   0.366885021805   
      0.366186307567   0.365481927913   0.36477625802   0.364073787401   0.363379089226   
      0.362696786323   0.362031514242   0.361387881816   0.360770429788   0.360183588128   
      0.359631632729   0.359118642209   0.35864845556   0.358224631365   0.357850409301   
      0.357528674558   0.357261925791   0.357052247112   0.356901284571   0.356810227489   
      0.356779794928   0.356810227489   0.356901284571   0.357052247112   0.357261925791   
      0.357528674558   0.357850409301   0.358224631365   0.35864845556   0.359118642209   
      0.359631632729   0.360183588128   0.360770429788   0.361387881816   0.362031514242   
      0.362696786323   0.363379089226   0.364073787401   0.36477625802   0.365481927913   
      0.366186307567   0.366885021805   0.36757383693   0.368248684183   0.368905679513   
      0.369541139726   0.370151595196   0.370733799369   0.371284735369   0.371801620058   
      0.372281905903   0.372723281047   0.373123667957   0.373481221016   0.373794323406   
      0.3740615836   0.374281831736   0.374454116144   0.374577700205   0.374652059744   
      0.363662977649   0.363637061722   0.363559426315   0.363430408921   0.363250573281   
      0.36302071118   0.362741844826   0.362415229651   0.362042357365   0.361624959021   
      0.36116500783   0.360664721428   0.360126563258   0.35955324271   0.358947713637   
      0.358313170875   0.357653044383   0.356970990646   0.356270881034   0.355556786832   
      0.354832960763   0.354103814883   0.353373894841   0.352647850588   0.351930403758   
      0.351226312024   0.350540330857   0.349877173215   0.349241467752   0.3486377162   
      0.34807025062   0.347543191233   0.347060405502   0.346625469148   0.346241629692   
      0.345911773086   0.345638393895   0.345423569444   0.345268938248   0.345175682991   
      0.345144518233   0.345175682991   0.345268938248   0.345423569444   0.345638393895   
      0.345911773086   0.346241629692   0.346625469148   0.347060405502   0.347543191233   
      0.34807025062   0.3486377162   0.349241467752   0.349877173215   0.350540330857   
      0.351226312024   0.351930403758   0.352647850588   0.353373894841   0.354103814883   
      0.354832960763   0.355556786832   0.356270881034   0.356970990646   0.357653044383   
      0.358313170875   0.358947713637   0.35955324271   0.360126563258   0.360664721428   
      0.36116500783   0.361624959021   0.362042357365   0.362415229651   0.362741844826   
      0.36302071118   0.363250573281   0.363430408921   0.363559426315   0.363637061722   
      0.356624002497   0.356597496577   0.356518096207   0.356386153916   0.356202258404   
      0.355967236208   0.355682153868   0.355348320454   0.354967290249   0.354540865358   
      0.354071097958   0.353560291885   0.353011003201   0.352426039397   0.351808456826   
      0.351161556011   0.350488874449   0.349794176564   0.349081440533   0.348354841727   
      0.347618732637   0.346877619199   0.346136133569   0.345399003497   0.344671018564   
      0.343956993643   0.343261730077   0.342589975109   0.341946380204   0.341335458915   
      0.340761544987   0.340228751371   0.339740930798   0.339301638509   0.338914097685   
      0.338581168034   0.338305317917   0.338088600337   0.337932633016   0.337838582741   
      0.337807154109   0.337838582741   0.337932633016   0.338088600337   0.338305317917   
      0.338581168034   0.338914097685   0.339301638509   0.339740930798   0.340228751371   
      0.340761544987   0.341335458915   0.341946380204   0.342589975109   0.343261730077   
      0.343956993643   0.344671018564   0.345399003497   0.346136133569   0.346877619199   
      0.347618732637   0.348354841727   0.349081440533   0.349794176564   0.350488874449   
      0.351161556011   0.351808456826   0.352426039397   0.353011003201   0.353560291885   
      0.354071097958   0.354540865358   0.354967290249   0.355348320454   0.355682153868   
      0.355967236208   0.356202258404   0.356386153916   0.356518096207   0.356597496577   
      0.353211944852   0.353185186461   0.353105031103   0.352971838564   0.352786209586   
      0.352548987455   0.352261260044   0.351924362182   0.351539878134   0.351109643949   
      0.3506357494   0.350120539189   0.349566613077   0.348976824566   0.348354277762   
      0.347702322027   0.347024544074   0.346324757164   0.34560698713   0.34487545501   
      0.344134556151   0.343388835757   0.342642960939   0.341901689452   0.341169835404   
      0.340452232352   0.339753694261   0.339078974921   0.338432726437   0.337819457475   
      0.337243491932   0.336708928696   0.336219603113   0.335779050736   0.335390473838   
      0.335056711118   0.334780210932   0.334563008312   0.334406705956   0.334312459349   
      0.334280966066   0.334312459349   0.334406705956   0.334563008312   0.334780210932   
      0.335056711118   0.335390473838   0.335779050736   0.336219603113   0.336708928696   
      0.337243491932   0.337819457475   0.338432726437   0.339078974921   0.339753694261   
      0.340452232352   0.341169835404   0.341901689452   0.342642960939   0.343388835757   
      0.344134556151   0.34487545501   0.34560698713   0.346324757164   0.347024544074   
      0.347702322027   0.348354277762   0.348976824566   0.349566613077   0.350120539189   
      0.3506357494   0.351109643949   0.351539878134   0.351924362182   0.352261260044   
      0.352548987455   0.352786209586   0.352971838564   0.353105031103   0.353185186461   
      0.353211944852   0.353185186461   0.353105031103   0.352971838564   0.352786209586   
      0.352548987455   0.352261260044   0.351924362182   0.351539878134   0.351109643949   
      0.3506357494   0.350120539189   0.349566613077   0.348976824566   0.348354277762   
      0.347702322027   0.347024544074   0.346324757164   0.34560698713   0.34487545501   
      0.344134556151   0.343388835757   0.342642960939   0.341901689452   0.341169835404   
      0.340452232352   0.339753694261   0.339078974921   0.338432726437   0.337819457475   
      0.337243491932   0.336708928696   0.336219603113   0.335779050736   0.335390473838   
      0.335056711118   0.334780210932   0.334563008312   0.334406705956   0.334312459349   
      0.334280966066   0.334312459349   0.334406705956   0.334563008312   0.334780210932   
      0.335056711118   0.335390473838   0.335779050736   0.336219603113   0.336708928696   
      0.337243491932   0.337819457475   0.338432726437   0.339078974921   0.339753694261   
      0.340452232352   0.341169835404   0.341901689452   0.342642960939   0.343388835757   
      0.344134556151   0.34487545501   0.34560698713   0.346324757164   0.347024544074   
      0.347702322027   0.348354277762   0.348976824566   0.349566613077   0.350120539189   
      0.3506357494   0.351109643949   0.351539878134   0.351924362182   0.352261260044   
      0.352548987455   0.352786209586   0.352971838564   0.353105031103   0.353185186461   
      0.356624002497   0.356597496577   0.356518096207   0.356386153916   0.356202258404   
      0.355967236208   0.355682153868   0.355348320454   0.354967290249   0.354540865358   
      0.354071097958   0.353560291885   0.353011003201   0.352426039397   0.351808456826   
      0.351161556011   0.350488874449   0.349794176564   0.349081440533   0.348354841727   
      0.347618732637   0.346877619199   0.346136133569   0.345399003497   0.344671018564   
      0.343956993643   0.343261730077   0.342589975109   0.341946380204   0.341335458915   
      0.340761544987   0.340228751371   0.339740930798   0.339301638509   0.338914097685   
      0.338581168034   0.338305317917   0.338088600337   0.337932633016   0.337838582741   
      0.337807154109   0.337838582741   0.337932633016   0.338088600337   0.338305317917   
      0.338581168034   0.338914097685   0.339301638509   0.339740930798   0.340228751371   
      0.340761544987   0.341335458915   0.341946380204   0.342589975109   0.343261730077   
      0.343956993643   0.344671018564   0.345399003497   0.346136133569   0.346877619199   
      0.347618732637   0.348354841727   0.349081440533   0.349794176564   0.350488874449   
      0.351161556011   0.351808456826   0.352426039397   0.353011003201   0.353560291885   
      0.354071097958   0.354540865358   0.354967290249   0.355348320454   0.355682153868   
      0.355967236208   0.356202258404   0.356386153916   0.356518096207   0.356597496577   
      0.363662977649   0.363637061722   0.363559426315   0.363430408921   0.363250573281   
      0.36302071118   0.362741844826   0.362415229651   0.362042357365   0.361624959021   
      0.36116500783   0.360664721428   0.360126563258   0.35955324271   0.358947713637   
      0.358313170875   0.357653044383   0.356970990646   0.356270881034   0.355556786832   
      0.354832960763   0.354103814883   0.353373894841   0.352647850588   0.351930403758   
      0.351226312024   0.350540330857   0.349877173215   0.349241467752   0.3486377162   
      0.34807025062   0.347543191233   0.347060405502   0.346625469148   0.346241629692   
      0.345911773086   0.345638393895   0.345423569444   0.345268938248   0.345175682991   
      0.345144518233   0.345175682991   0.345268938248   0.345423569444   0.345638393895   
      0.345911773086   0.346241629692   0.346625469148   0.347060405502   0.347543191233   
      0.34807025062   0.3486377162   0.349241467752   0.349877173215   0.350540330857   
      0.351226312024   0.351930403758   0.352647850588   0.353373894841   0.354103814883   
      0.354832960763   0.355556786832   0.356270881034   0.356970990646   0.357653044383   
      0.358313170875   0.358947713637   0.35955324271   0.360126563258   0.360664721428   
      0.36116500783   0.361624959021   0.362042357365   0.362415229651   0.362741844826   
      0.36302071118   0.363250573281   0.363430408921   0.363559426315   0.363637061722   
      0.374676881066   0.374652059744   0.374577700205   0.374454116144   0.374281831736   
      0.3740615836   0.373794323406   0.373481221016   0.373123667957   0.372723281047   
      0.372281905903   0.371801620058   0.371284735369   0.370733799369   0.370151595196   
      0.369541139726   0.368905679513   0.368248684183   0.36757383693   0.366885021805   
      0.366186307567   0.365481927913   0.36477625802   0.364073787401   0.363379089226   
      0.362696786323   0.362031514242   0.361387881816   0.360770429788   0.360183588128   
      0.359631632729   0.359118642209   0.35864845556   0.358224631365   0.357850409301   
      0.357528674558   0.357261925791   0.357052247112   0.356901284571   0.356810227489   
      0.356779794928   0.356810227489   0.356901284571   0.357052247112   0.357261925791   
      0.357528674558   0.357850409301   0.358224631365   0.35864845556   0.359118642209   
      0.359631632729   0.360183588128   0.360770429788   0.361387881816   0.362031514242   
      0.362696786323   0.363379089226   0.364073787401   0.36477625802   0.365481927913   
      0.366186307567   0.366885021805   0.36757383693   0.368248684183   0.368905679513   
      0.369541139726   0.370151595196   0.370733799369   0.371284735369   0.371801620058   
      0.372281905903   0.372723281047   0.373123667957   0.373481221016   0.373794323406   
      0.3740615836   0.374281831736   0.374454116144   0.374577700205   0.374652059744   
      0.390013810348   0.38999081867   0.389921936817   0.389807444758   0.389647810539   
      0.389443692353   0.389195941342   0.388905604992   0.388573930976   0.388202371267   
      0.387792586282   0.387346448817   0.38686604747   0.386353689236   0.385811900933   
      0.385243429075   0.38465123784   0.384038504746   0.383408613665   0.38276514487   
      0.382111861799   0.381452694325   0.38079171838   0.38013313187   0.379481226917   
      0.378840358593   0.3782149104   0.377609256877   0.377027723827   0.376474546733   
      0.375953828043   0.375469494029   0.375025252013   0.374624548713   0.374270530524   
      0.373966006457   0.373713414458   0.373514791757   0.373371749798   0.373285454229   
      0.373256610344   0.373285454229   0.373371749798   0.373514791757   0.373713414458   
      0.373966006457   0.374270530524   0.374624548713   0.375025252013   0.375469494029   
      0.375953828043   0.376474546733   0.377027723827   0.377609256877   0.3782149104   
      0.378840358593   0.379481226917   0.38013313187   0.38079171838   0.381452694325   
      0.382111861799   0.38276514487   0.383408613665   0.384038504746   0.38465123784   
      0.385243429075   0.385811900933   0.386353689236   0.38686604747   0.387346448817   
      0.387792586282   0.388202371267   0.388573930976   0.388905604992   0.389195941342   
      0.389443692353   0.389647810539   0.389807444758   0.389921936817   0.38999081867   
      0.409673928021   0.409653674376   0.409592992155   0.409492117925   0.409351447383   