<?xml version="1.0"?>
<VTKFile type="ImageData" version="0.1" byte_order="LittleEndian">
  <ImageData WholeExtent="0 79 0 19 0 19" Origin="0 0 0" Spacing="1 1 1">
  <Piece Extent="0 79 0 19 0 19">
    <PointData Scalars="density">
       <DataArray type="Float32" Name="bluedensity" NumberOfComponents="1" format="ascii">
      0   0   0   0   0   
      0   0   0   0   0   
      0   0   0   0   0   
      0   0   0   0   0   
      0   0   0   0   0   
      0   0   0   0   0   
      0   0   0   0   0   
      0   0   0   0   0   
      0   0   0   0   0   
      0   0   0   0   0   
      0   0   0   0   0   
      0   0   0   0   0   
      0   0   0   0   0   
      0   0   0   0   0   
      0   0   0   0   0   
      0   0   0   0   0   
      0   0   0   0   0   
      0   0   0   0   0   
      0   0   0   0   0   
      0   0   0   0   0   
      0   0   0   0   0   
      0   0   0   0   0   
      0   0   0   0   0   
      0   0   0   0   0   
      0   0   0   0   0   
      0   0   0   0   0   
      0   0   0   0   0   
      0   0   0   0   0   
      0   0   0   0   0   
      0   0   0   0   0   
      0   0   0   0   0   
      0   0   0   0   0   
      0   0   0   0   0   
      0   0   0   0   0   
      0   0   0   0   0   
      0   0   0   0   0   
      0   0   0   0   0   
      0   0   0   0   0   
      0   0   0   0   0   
      0   0   0   0   0   
      0   0   0   0   0   
      0   0   0   0   0   
      0   0   0   0   0   
      0   0   0   0   0   
      0   0   0   0   0   
      0   0   0   0   0   
      0   0   0   0   0   
      0   0   0   0   0   
      0   0   0   0   0   
      0   0   0   0   0   
      0   0   0   0   0   
      0   0   0   0   0   
      0   0   0   0   0   
      0   0   0   0   0   
      0   0   0   0   0   
      0   0   0   0   0   
      0   0   0   0   0   
      0   0   0   0   0   
      0   0   0   0   0   
      0   0   0   0   0   
      0   0   0   0   0   
      0   0   0   0   0   
      0   0   0   0   0   
      0   0   0   0   0   
      0   0   0   0   0   
      0   0   0   0   0   
      0   0   0   0   0   
      0   0   0   0   0   
      0   0   0   0   0   
      0   0   0   0   0   
      0   0   0   0   0   
      0   0   0   0   0   
      0   0   0   0   0   
      0   0   0   0   0   
      0   0   0   0   0   
      0   0   0   0   0   
      0   0   0   0   0   
      0   0   0   0   0   
      0   0   0   0   0   
      0   0   0   0   0   
      0   0   0   0   0   
      0   0   0   0   0   
      0   0   0   0   0   
      0   0   0   0   0   
      0   0   0   0   0   
      0   0   0   0   0   
      0   0   0   0   0   
      0   0   0   0   0   
      0   0   0   0   0   
      0   0   0   0   0   
      0   0   0   0   0   
      0   0   0   0   0   
      0   0   0   0   0   
      0   0   0   0   0   
      0   0   0   0   0   
      0   0   0   0   0   
      0   0   0   0   0   
      0   0   0   0   0   
      0   0   0   0   0   
      0   0   0   0   0   
      0   0   0   0   0   
      0   0   0   0   0   
      0   0   0   0   0   
      0   0   0   0   0   
      0   0   0   0   0   
      0   0   0   0   0   
      0   0   0   0   0   
      0   0   0   0   0   
      0   0   0   0   0   
      0   0   0   0   0   
      0   0   0   0   0   
      0   0   0   0   0   
      0   0   0   0   0   
      0   0   0   0   0   
      0   0   0   0   0   
      0   0   0   0   0   
      0   0   0   0   0   
      0   0   0   0   0   
      0   0   0   0   0   
      0   0   0   0   0   
      0   0   0   0   0   
      0   0   0   0   0   
      0   0   0   0   0   
      0   0   0   0   0   
      0   0   0   0   0   
      0   0   0   0   0   
      0   0   0   0   0   
      0   0   0   0   0   
      0   0   0   0   0   
      0   0   0   0   0   
      0   0   0   0   0   
      0   0   0   0   0   
      0   0   0   0   0   
      0   0   0   0   0   
      0   0   0   0   0   
      0   0   0   0   0   
      0   0   0   0   0   
      0   0   0   0   0   
      0   0   0   0   0   
      0   0   0   0   0   
      0   0   0   0   0   
      0   0   0   0   0   
      0   0   0   0   0   
      0   0   0   0   0   
      0   0   0   0   0   
      0   0   0   0   0   
      0   0   0   0   0   
      0   0   0   0   0   
      0   0   0   0   0   
      0   0   0   0   0   
      0   0   0   0   0   
      0   0   0   0   0   
      0   0   0   0   0   
      0   0   0   0   0   
      0   0   0   0   0   
      0   0   0   0   0   
      0   0   0   0   0   
      0   0   0   0   0   
      0   0   0   0   0   
      0   0   0   0   0   
      0   0   0   0   0   
      0   0   0   0   0   
      0   0   0   0   0   
      0   0   0   0   0   
      0   0   0   0   0   
      0   0   0   0   0   
      0   0   0   0   0   
      0   0   0   0   0   
      0   0   0   0   0   
      0   0   0   0   0   
      0   0   0   0   0   
      0   0   0   0   0   
      0   0   0   0   0   
      0   0   0   0   0   
      0   0   0   0   0   
      0   0   0   0   0   
      0   0   0   0   0   
      0   0   0   0   0   
      0   0   0   0   0   
      0   0   0   0   0   
      0   0   0   0   0   
      0   0   0   0   0   
      0   0   0   0   0   
      0   0   0   0   0   
      0   0   0   0   0   
      0   0   0   0   0   
      0   0   0   0   0   
      0   0   0   0   0   
      0   0   0   0   0   
      0   0   0   0   0   
      0   0   0   0   0   
      0   0   0   0   0   
      0   0   0   0   0   
      0   0   0   0   0   
      0   0   0   0   0   
      0   0   0   0   0   
      0   0   0   0   0   
      0   0   0   0   0   
      0   0   0   0   0   
      0   0   0   0   0   
      0   0   0   0   0   
      0   0   0   0   0   
      0   0   0   0   0   
      0   0   0   0   0   
      0   0   0   0   0   
      0   0   0   0   0   
      0   0   0   0   0   
      0   0   0   0   0   
      0   0   0   0   0   
      0   0   0   0   0   
      0   0   0   0   0   
      0   0   0   0   0   
      0   0   0   0   0   
      0   0   0   0   0   
      0   0   0   0   0   
      0   0   0   0   0   
      0   0   0   0   0   
      0   0   0   0   0   
      0   0   0   0   0   
      0   0   0   0   0   
      0   0   0   0   0   
      0   0   0   0   0   
      0   0   0   0   0   
      0   0   0   0   0   
      0   0   0   0   0   
      0   0   0   0   0   
      0   0   0   0   0   
      0   0   0   0   0   
      0   0   0   0   0   
      0   0   0   0   0   
      0   0   0   0   0   
      0   0   0   0   0   
      0   0   0   0   0   
      0   0   0   0   0   
      0   0   0   0   0   
      0   0   0   0   0   
      0   0   0   0   0   
      0   0   0   0   0   
      0   0   0   0   0   
      0   0   0   0   0   
      0   0   0   0   0   
      0   0   0   0   0   
      0   0   0   0   0   
      0   0   0   0   0   
      0   0   0   0   0   
      0   0   0   0   0   
      0   0   0   0   0   
      0   0   0   0   0   
      0   0   0   0   0   
      0   0   0   0   0   
      0   0   0   0   0   
      0   0   0   0   0   
      0   0   0   0   0   
      0   0   0   0   0   
      0   0   0   0   0   
      0   0   0   0   0   
      0   0   0   0   0   
      0   0   0   0   0   
      0   0   0   0   0   
      0   0   0   0   0   
      0   0   0   0   0   
      0   0   0   0   0   
      0   0   0   0   0   
      0   0   0   0   0   
      0   0   0   0   0   
      0   0   0   0   0   
      0   0   0   0   0   
      0   0   0   0   0   
      0   0   0   0   0   
      0   0   0   0   0   
      0   0   0   0   0   
      0   0   0   0   0   
      0   0   0   0   0   
      0   0   0   0   0   
      0   0   0   0   0   
      0   0   0   0   0   
      0   0   0   0   0   
      0   0   0   0   0   
      0   0   0   0   0   
      0   0   0   0   0   
      0   0   0   0   0   
      0   0   0   0   0   
      0   0   0   0   0   
      0   0   0   0   0   
      0   0   0   0   0   
      0   0   0   0   0   
      0   0   0   0   0   
      0   0   0   0   0   
      0   0   0   0   0   
      0   0   0   0   0   
      0   0   0   0   0   
      0   0   0   0   0   
      0   0   0   0   0   
      0   0   0   0   0   
      0   0   0   0   0   
      0   0   0   0   0   
      0   0   0   0   0   
      0   0   0   0   0   
      0   0   0   0   0   
      0   0   0   0   0   
      0   0   0   0   0   
      0   0   0   0   0   
      0   0   0   0   0   
      0   0   0   0   0   
      0   0   0   0   0   
      0   0   0   0   0   
      0   0   0   0   0   
      0   0   0   0   0   
      0   0   0   0   0   
      0   0   0   0   0   
      0   0   0   0   0   
      0   0   0   0   0   
      0   0   0   0   0   
      0   0   0   0   0   
      0   0   0   0   0   
      0   0   0   0   0   
      0   0   0   0   0   
      0   0   0   0   0   
      0   0   0   0   0   
      0   0   0   0   0   
      0   0   0   0   0   
      0   0   0   0   0   
      0   0   0   0   0   
      0   0   0   0   0   
      0   0   0   0   0   
      0   0   0   0   0   
      0   0   0   0   0   
      0   0   0   0   0   
      0   0   0   0   0   
      0   0   0   0   0   
      0   0   0   0   0   
      0   0   0   0   0   
      0   0   0   0   0   
      0   0   0   0   0   
      0   0   0   0   0   
      0   0   0   0   0   
      0.579638916959   0.579612244505   0.579532206643   0.579398742472   0.579211752552   
      0.578971102218   0.578676626663   0.57832813826   0.577925436737   0.577468323008   
      0.576956617609   0.57639018488   0.575768964155   0.575093009316   0.574362538058   
      0.573577992068   0.572740108997   0.571850006551   0.570909278194   0.569920098891   
      0.568885337955   0.567808674541   0.566694709785   0.565549068093   0.564378478981   
      0.563190830234   0.561995183347   0.560801743145   0.559621775422   0.558467469124   
      0.557351742917   0.556287999648   0.555289835797   0.554370716269   0.553543627477   
      0.552820723331   0.552212979518   0.551729871205   0.55137908823   0.551166300084   
      0.551094980653   0.551166300084   0.55137908823   0.551729871205   0.552212979518   
      0.552820723331   0.553543627477   0.554370716269   0.555289835797   0.556287999648   
      0.557351742917   0.558467469124   0.559621775422   0.560801743145   0.561995183347   
      0.563190830234   0.564378478981   0.565549068093   0.566694709785   0.567808674541   
      0.568885337955   0.569920098891   0.570909278194   0.571850006551   0.572740108997   
      0.573577992068   0.574362538058   0.575093009316   0.575768964155   0.57639018488   
      0.576956617609   0.577468323008   0.577925436737   0.57832813826   0.578676626663   
      0.578971102218   0.579211752552   0.579398742472   0.579532206643   0.579612244505   
      0.470647264885   0.470610570917   0.470500451197   0.470316793316   0.470059413499   
      0.4697280623   0.469322433292   0.468842175454   0.468286910225   0.467656254417   
      0.466949850408   0.466167405262   0.465308740552   0.464373854708   0.463362999604   
      0.462276772754   0.461116225858   0.459882989468   0.458579412218   0.457208711364   
      0.455775129391   0.454284089358   0.452742339593   0.451158076678   0.449541034659   
      0.447902528323   0.446255439491   0.444614137576   0.442994329129   0.441412835421   
      0.439887301895   0.438435848023   0.437076670272   0.435827613977   0.434705731822   
      0.433726847097   0.432905139181   0.432252766952   0.431779543476   0.431492672624   
      0.431396555573   0.431492672624   0.431779543476   0.432252766952   0.432905139181   
      0.433726847097   0.434705731822   0.435827613977   0.437076670272   0.438435848023   
      0.439887301895   0.441412835421   0.442994329129   0.444614137576   0.446255439491   
      0.447902528323   0.449541034659   0.451158076678   0.452742339593   0.454284089358   
      0.455775129391   0.457208711364   0.458579412218   0.459882989468   0.461116225858   
      0.462276772754   0.463362999604   0.464373854708   0.465308740552   0.466167405262   
      0.466949850408   0.467656254417   0.468286910225   0.468842175454   0.469322433292   
      0.4697280623   0.470059413499   0.470316793316   0.470500451197   0.470610570917   
      0.448785057859   0.448737242254   0.448593751369   0.448354454676   0.448019140405   
      0.447587524674   0.447059265244   0.446433980879   0.445711277584   0.444890783294   
      0.443972192846   0.442955325271   0.441840195518   0.440627102658   0.43931673627   
      0.43791030205   0.436409666613   0.434817519972   0.433137552172   0.431374638273   
      0.429535023275   0.42762649611   0.425658539701   0.423642442762   0.42159135888   
      0.419520299738   0.417446052252   0.415387013794   0.413362945105   0.411394646489   
      0.409503568581   0.407711373695   0.406039466967   0.404508517751   0.403137991171   
      0.401945707433   0.400947443224   0.400156585624   0.399583845272   0.399237032357   
      0.399120896753   0.399237032357   0.399583845272   0.400156585624   0.400947443224   
      0.401945707433   0.403137991171   0.404508517751   0.406039466967   0.407711373695   
      0.409503568581   0.411394646489   0.413362945105   0.415387013794   0.417446052252   
      0.419520299738   0.42159135888   0.423642442762   0.425658539701   0.42762649611   
      0.429535023275   0.431374638273   0.433137552172   0.434817519972   0.436409666613   
      0.43791030205   0.43931673627   0.440627102658   0.441840195518   0.442955325271   
      0.443972192846   0.444890783294   0.445711277584   0.446433980879   0.447059265244   
      0.447587524674   0.448019140405   0.448354454676   0.448593751369   0.448737242254   
      0.427251358354   0.427191934403   0.427013623082   0.426716308493   0.426299805986   
      0.425763875568   0.425108241898   0.42433262215   0.423436763327   0.422420490943   
      0.421283771269   0.420026789431   0.418650045653   0.417154471587   0.415541568011   
      0.413813564041   0.411973596347   0.410025904676   0.407976037331   0.405831057271   
      0.403599736572   0.401292724412   0.398922672147   0.396504298833   0.394054382175   
      0.391591663515   0.389136660947   0.386711391534   0.384339010968   0.382043386001   
      0.379848620422   0.377778558559   0.375856290818   0.374103683637   0.372540951961   
      0.371186286739   0.370055543884   0.369161995645   0.368516140952   0.368125568604   
      0.367994866228   0.368125568604   0.368516140952   0.369161995645   0.370055543884   
      0.371186286739   0.372540951961   0.374103683637   0.375856290818   0.377778558559   
      0.379848620422   0.382043386001   0.384339010968   0.386711391534   0.389136660947   
      0.391591663515   0.394054382175   0.396504298833   0.398922672147   0.401292724412   
      0.403599736572   0.405831057271   0.407976037331   0.410025904676   0.411973596347   
      0.413813564041   0.415541568011   0.417154471587   0.418650045653   0.420026789431   
      0.421283771269   0.422420490943   0.423436763327   0.42433262215   0.425108241898   
      0.425763875568   0.426299805986   0.426716308493   0.427013623082   0.427191934403   
      0.410379952962   0.410311201792   0.410104923601   0.409761047656   0.409279467313   
      0.408660057631   0.407902701529   0.407007325948   0.405973949891   0.4048027465   
      0.403494121556   0.402048810797   0.400467998204   0.39875345677   0.396907712178   
      0.394934228101   0.392837609601   0.390623818185   0.388300388856   0.385876636118   
      0.383363832887   0.380775344245   0.378126697489   0.375435571585   0.372721693197   
      0.370006632824   0.367313502744   0.364666567344   0.362090784842   0.359611305944   
      0.35725295862   0.355039748281   0.352994399317   0.351137957765   0.349489467031   
      0.348065720216   0.346881085062   0.345947391585   0.345273868788   0.344867115495   
      0.344731091195   0.344867115495   0.345273868788   0.345947391585   0.346881085062   
      0.348065720216   0.349489467031   0.351137957765   0.352994399317   0.355039748281   
      0.35725295862   0.359611305944   0.362090784842   0.364666567344   0.367313502744   
      0.370006632824   0.372721693197   0.375435571585   0.378126697489   0.380775344245   
      0.383363832887   0.385876636118   0.388300388856   0.390623818185   0.392837609601   
      0.394934228101   0.396907712178   0.39875345677   0.400467998204   0.402048810797   
      0.403494121556   0.4048027465   0.405973949891   0.407007325948   0.407902701529   
      0.408660057631   0.409279467313   0.409761047656   0.410104923601   0.410311201792   
      0.397026509158   0.396950977839   0.396724377265   0.396346691637   0.395817908365   
      0.395138039549   0.394307153743   0.393325419675   0.392193163968   0.390910945202   
      0.389479646777   0.387900590894   0.386175675493   0.384307534981   0.38229972403   
      0.380156921498   0.377885148608   0.37549199211   0.372986819438   0.370380969388   
      0.36768789921   0.364923267867   0.362104936418   0.359252870309   0.356388935054   
      0.353536585742   0.350720461061   0.34796590261   0.345298428398   0.342743194381   
      0.340324478521   0.338065218224   0.335986624732   0.334107888352   0.332445978022   
      0.331015529037   0.329828805065   0.328895715571   0.328223867528   0.32781863074   
      0.327683198662   0.32781863074   0.328223867528   0.328895715571   0.329828805065   
      0.331015529037   0.332445978022   0.334107888352   0.335986624732   0.338065218224   
      0.340324478521   0.342743194381   0.345298428398   0.34796590261   0.350720461061   
      0.353536585742   0.356388935054   0.359252870309   0.362104936418   0.364923267867   
      0.36768789921   0.370380969388   0.372986819438   0.37549199211   0.377885148608   
      0.380156921498   0.38229972403   0.384307534981   0.386175675493   0.387900590894   
      0.389479646777   0.390910945202   0.392193163968   0.393325419675   0.394307153743   
      0.395138039549   0.395817908365   0.396346691637   0.396724377265   0.396950977839   
      0.387288137588   0.387208148137   0.386968189358   0.386568294668   0.386008535656   
      0.385289046879   0.384410062436   0.383371966114   0.38217535729   0.380821135005   
      0.37931060267   0.377645595522   0.375828632254   0.373863090871   0.371753406871   
      0.3695052891   0.36712594525   0.364624305121   0.362011225827   0.359299659788   
      0.356504764238   0.353643931095   0.350736718833   0.347804674064   0.344871039417   
      0.341960355334   0.339097974892   0.336309521034   0.333620322703   0.331054868928   
      0.32863631749   0.326386087684   0.324323556237   0.322465863415   0.320827824703   
      0.319421933616   0.318258434378   0.317345439578   0.316689067398   0.316293575005   
      0.316161468526   0.316293575005   0.316689067398   0.317345439578   0.318258434378   
      0.319421933616   0.320827824703   0.322465863415   0.324323556237   0.326386087684   
      0.32863631749   0.331054868928   0.333620322703   0.336309521034   0.339097974892   
      0.341960355334   0.344871039417   0.347804674064   0.350736718833   0.353643931095   
      0.356504764238   0.359299659788   0.362011225827   0.364624305121   0.36712594525   
      0.3695052891   0.371753406871   0.373863090871   0.375828632254   0.377645595522   
      0.37931060267   0.380821135005   0.38217535729   0.383371966114   0.384410062436   
      0.385289046879   0.386008535656   0.386568294668   0.386968189358   0.387208148137   
      0.380989194268   0.380906563484   0.380658692359   0.380245649752   0.379667567959   
      0.378924670006   0.37801730984   0.376946027275   0.375711619959   0.374315234798   
      0.372758481225   0.371043568251   0.369173466294   0.367152093177   0.364984521395   
      0.362677200637   0.360238185857   0.35767735705   0.355006612937   0.352240017576   
      0.349393877502   0.346486728031   0.343539211649   0.340573839041   0.337614633816   
      0.334686674262   0.331815557504   0.329026821432   0.326345365514   0.323794912188   
      0.321397545554   0.319173354506   0.317140194967   0.315313572614   0.313706635421   
      0.312330255999   0.311193177873   0.310302197532   0.309662354898   0.309277107951   
      0.309148471812   0.309277107951   0.309662354898   0.310302197532   0.311193177873   
      0.312330255999   0.313706635421   0.315313572614   0.317140194967   0.319173354506   
      0.321397545554   0.323794912188   0.326345365514   0.329026821432   0.331815557504   
      0.334686674262   0.337614633816   0.340573839041   0.343539211649   0.346486728031   
      0.349393877502   0.352240017576   0.355006612937   0.35767735705   0.360238185857   
      0.362677200637   0.364984521395   0.367152093177   0.369173466294   0.371043568251   
      0.372758481225   0.374315234798   0.375711619959   0.376946027275   0.37801730984   
      0.378924670006   0.379667567959   0.380245649752   0.380658692359   0.380906563484   
      0.377913204874   0.377829355032   0.377577832765   0.377158725297   0.376572196415   
      0.375818515133   0.374898097835   0.373811565812   0.372559820483   0.371144138726   
      0.369566290667   0.367828681723   0.365934519653   0.363888005615   0.361694545757   
      0.359360976585   0.356895793482   0.354309367492   0.351614131567   0.348824714423   
      0.345957999131   0.343033085178   0.340071137827   0.337095117058   0.334129389731   
      0.33119924139   0.32833031641   0.325548024762   0.322876958673   0.320340361807   
      0.317959687265   0.315754269891   0.313741124932   0.311934871318   0.310347765769   
      0.30898982495   0.307869007704   0.306991427856   0.306361569553   0.30598248078   
      0.305855925547   0.30598248078   0.306361569553   0.306991427856   0.307869007704   
      0.30898982495   0.310347765769   0.311934871318   0.313741124932   0.315754269891   
      0.317959687265   0.320340361807   0.322876958673   0.325548024762   0.32833031641   
      0.33119924139   0.334129389731   0.337095117058   0.340071137827   0.343033085178   
      0.345957999131   0.348824714423   0.351614131567   0.354309367492   0.356895793482   
      0.359360976585   0.361694545757   0.363888005615   0.365934519653   0.367828681723   
      0.369566290667   0.371144138726   0.372559820483   0.373811565812   0.374898097835   
      0.375818515133   0.376572196415   0.377158725297   0.377577832765   0.377829355032   
      0.377913204874   0.377829355032   0.377577832765   0.377158725297   0.376572196415   
      0.375818515133   0.374898097835   0.373811565812   0.372559820483   0.371144138726   
      0.369566290667   0.367828681723   0.365934519653   0.363888005615   0.361694545757   
      0.359360976585   0.356895793482   0.354309367492   0.351614131567   0.348824714423   
      0.345957999131   0.343033085178   0.340071137827   0.337095117058   0.334129389731   
      0.33119924139   0.32833031641   0.325548024762   0.322876958673   0.320340361807   
      0.317959687265   0.315754269891   0.313741124932   0.311934871318   0.310347765769   
      0.30898982495   0.307869007704   0.306991427856   0.306361569553   0.30598248078   
      0.305855925547   0.30598248078   0.306361569553   0.306991427856   0.307869007704   
      0.30898982495   0.310347765769   0.311934871318   0.313741124932   0.315754269891   
      0.317959687265   0.320340361807   0.322876958673   0.325548024762   0.32833031641   
      0.33119924139   0.334129389731   0.337095117058   0.340071137827   0.343033085178   
      0.345957999131   0.348824714423   0.351614131567   0.354309367492   0.356895793482   
      0.359360976585   0.361694545757   0.363888005615   0.365934519653   0.367828681723   
      0.369566290667   0.371144138726   0.372559820483   0.373811565812   0.374898097835   
      0.375818515133   0.376572196415   0.377158725297   0.377577832765   0.377829355032   
      0.380989194268   0.380906563484   0.380658692359   0.380245649752   0.379667567959   
      0.378924670006   0.37801730984   0.376946027275   0.375711619959   0.374315234798   
      0.372758481225   0.371043568251   0.369173466294   0.367152093177   0.364984521395   
      0.362677200637   0.360238185857   0.35767735705   0.355006612937   0.352240017576   
      0.349393877502   0.346486728031   0.343539211649   0.340573839041   0.337614633816   
      0.334686674262   0.331815557504   0.329026821432   0.326345365514   0.323794912188   
      0.321397545554   0.319173354506   0.317140194967   0.315313572614   0.313706635421   
      0.312330255999   0.311193177873   0.310302197532   0.309662354898   0.309277107951   
      0.309148471812   0.309277107951   0.309662354898   0.310302197532   0.311193177873   
      0.312330255999   0.313706635421   0.315313572614   0.317140194967   0.319173354506   
      0.321397545554   0.323794912188   0.326345365514   0.329026821432   0.331815557504   
      0.334686674262   0.337614633816   0.340573839041   0.343539211649   0.346486728031   
      0.349393877502   0.352240017576   0.355006612937   0.35767735705   0.360238185857   
      0.362677200637   0.364984521395   0.367152093177   0.369173466294   0.371043568251   
      0.372758481225   0.374315234798   0.375711619959   0.376946027275   0.37801730984   
      0.378924670006   0.379667567959   0.380245649752   0.380658692359   0.380906563484   
      0.387288137588   0.387208148137   0.386968189358   0.386568294668   0.386008535656   
      0.385289046879   0.384410062436   0.383371966114   0.38217535729   0.380821135005   
      0.37931060267   0.377645595522   0.375828632254   0.373863090871   0.371753406871   
      0.3695052891   0.36712594525   0.364624305121   0.362011225827   0.359299659788   
      0.356504764238   0.353643931095   0.350736718833   0.347804674064   0.344871039417   
      0.341960355334   0.339097974892   0.336309521034   0.333620322703   0.331054868928   
      0.32863631749   0.326386087684   0.324323556237   0.322465863415   0.320827824703   
      0.319421933616   0.318258434378   0.317345439578   0.316689067398   0.316293575005   
      0.316161468526   0.316293575005   0.316689067398   0.317345439578   0.318258434378   
      0.319421933616   0.320827824703   0.322465863415   0.324323556237   0.326386087684   
      0.32863631749   0.331054868928   0.333620322703   0.336309521034   0.339097974892   
      0.341960355334   0.344871039417   0.347804674064   0.350736718833   0.353643931095   
      0.356504764238   0.359299659788   0.362011225827   0.364624305121   0.36712594525   
      0.3695052891   0.371753406871   0.373863090871   0.375828632254   0.377645595522   
      0.37931060267   0.380821135005   0.38217535729   0.383371966114   0.384410062436   
      0.385289046879   0.386008535656   0.386568294668   0.386968189358   0.387208148137   
      0.397026509158   0.396950977839   0.396724377265   0.396346691637   0.395817908365   
      0.395138039549   0.394307153743   0.393325419675   0.392193163968   0.390910945202   
      0.389479646777   0.387900590894   0.386175675493   0.384307534981   0.38229972403   
      0.380156921498   0.377885148608   0.37549199211   0.372986819438   0.370380969388   
      0.36768789921   0.364923267867   0.362104936418   0.359252870309   0.356388935054   
      0.353536585742   0.350720461061   0.34796590261   0.345298428398   0.342743194381   
      0.340324478521   0.338065218224   0.335986624732   0.334107888352   0.332445978022   
      0.331015529037   0.329828805065   0.328895715571   0.328223867528   0.32781863074   
      0.327683198662   0.32781863074   0.328223867528   0.328895715571   0.329828805065   
      0.331015529037   0.332445978022   0.334107888352   0.335986624732   0.338065218224   
      0.340324478521   0.342743194381   0.345298428398   0.34796590261   0.350720461061   
      0.353536585742   0.356388935054   0.359252870309   0.362104936418   0.364923267867   
      0.36768789921   0.370380969388   0.372986819438   0.37549199211   0.377885148608   
      0.380156921498   0.38229972403   0.384307534981   0.386175675493   0.387900590894   
      0.389479646777   0.390910945202   0.392193163968   0.393325419675   0.394307153743   
      0.395138039549   0.395817908365   0.396346691637   0.396724377265   0.396950977839   
      0.410379952962   0.410311201792   0.410104923601   0.409761047656   0.409279467313   
      0.408660057631   0.407902701529   0.407007325948   0.405973949891   0.4048027465   
      0.403494121556   0.402048810797   0.400467998204   0.39875345677   0.396907712178   
      0.394934228101   0.392837609601   0.390623818185   0.388300388856   0.385876636118   
      0.383363832887   0.380775344245   0.378126697489   0.375435571585   0.372721693197   
      0.370006632824   0.367313502744   0.364666567344   0.362090784842   0.359611305944   
      0.35725295862   0.355039748281   0.352994399317   0.351137957765   0.349489467031   
      0.348065720216   0.346881085062   0.345947391585   0.345273868788   0.344867115495   
      0.344731091195   0.344867115495   0.345273868788   0.345947391585   0.346881085062   
      0.348065720216   0.349489467031   0.351137957765   0.352994399317   0.355039748281   
      0.35725295862   0.359611305944   0.362090784842   0.364666567344   0.367313502744   
      0.370006632824   0.372721693197   0.375435571585   0.378126697489   0.380775344245   
      0.383363832887   0.385876636118   0.388300388856   0.390623818185   0.392837609601   
      0.394934228101   0.396907712178   0.39875345677   0.400467998204   0.402048810797   
      0.403494121556   0.4048027465   0.405973949891   0.407007325948   0.407902701529   
      0.408660057631   0.409279467313   0.409761047656   0.410104923601   0.410311201792   
      0.427251358354   0.427191934403   0.427013623082   0.426716308493   0.426299805986   