<?xml version="1.0"?>
<VTKFile type="ImageData" version="0.1" byte_order="LittleEndian">
  <ImageData WholeExtent="0 79 0 19 0 19" Origin="0 0 0" Spacing="1 1 1">
  <Piece Extent="0 79 0 19 0 19">
    <PointData Scalars="density">
       <DataArray type="Float32" Name="bluedensity" NumberOfComponents="1" format="ascii">
      0   0   0   0   0   
      0   0   0   0   0   
      0   0   0   0   0   
      0   0   0   0   0   
      0   0   0   0   0   
      0   0   0   0   0   
      0   0   0   0   0   
      0   0   0   0   0   
      0   0   0   0   0   
      0   0   0   0   0   
      0   0   0   0   0   
      0   0   0   0   0   
      0   0   0   0   0   
      0   0   0   0   0   
      0   0   0   0   0   
      0   0   0   0   0   
      0   0   0   0   0   
      0   0   0   0   0   
      0   0   0   0   0   
      0   0   0   0   0   
      0   0   0   0   0   
      0   0   0   0   0   
      0   0   0   0   0   
      0   0   0   0   0   
      0   0   0   0   0   
      0   0   0   0   0   
      0   0   0   0   0   
      0   0   0   0   0   
      0   0   0   0   0   
      0   0   0   0   0   
      0   0   0   0   0   
      0   0   0   0   0   
      0   0   0   0   0   
      0   0   0   0   0   
      0   0   0   0   0   
      0   0   0   0   0   
      0   0   0   0   0   
      0   0   0   0   0   
      0   0   0   0   0   
      0   0   0   0   0   
      0   0   0   0   0   
      0   0   0   0   0   
      0   0   0   0   0   
      0   0   0   0   0   
      0   0   0   0   0   
      0   0   0   0   0   
      0   0   0   0   0   
      0   0   0   0   0   
      0   0   0   0   0   
      0   0   0   0   0   
      0   0   0   0   0   
      0   0   0   0   0   
      0   0   0   0   0   
      0   0   0   0   0   
      0   0   0   0   0   
      0   0   0   0   0   
      0   0   0   0   0   
      0   0   0   0   0   
      0   0   0   0   0   
      0   0   0   0   0   
      0   0   0   0   0   
      0   0   0   0   0   
      0   0   0   0   0   
      0   0   0   0   0   
      0   0   0   0   0   
      0   0   0   0   0   
      0   0   0   0   0   
      0   0   0   0   0   
      0   0   0   0   0   
      0   0   0   0   0   
      0   0   0   0   0   
      0   0   0   0   0   
      0   0   0   0   0   
      0   0   0   0   0   
      0   0   0   0   0   
      0   0   0   0   0   
      0   0   0   0   0   
      0   0   0   0   0   
      0   0   0   0   0   
      0   0   0   0   0   
      0   0   0   0   0   
      0   0   0   0   0   
      0   0   0   0   0   
      0   0   0   0   0   
      0   0   0   0   0   
      0   0   0   0   0   
      0   0   0   0   0   
      0   0   0   0   0   
      0   0   0   0   0   
      0   0   0   0   0   
      0   0   0   0   0   
      0   0   0   0   0   
      0   0   0   0   0   
      0   0   0   0   0   
      0   0   0   0   0   
      0   0   0   0   0   
      0   0   0   0   0   
      0   0   0   0   0   
      0   0   0   0   0   
      0   0   0   0   0   
      0   0   0   0   0   
      0   0   0   0   0   
      0   0   0   0   0   
      0   0   0   0   0   
      0   0   0   0   0   
      0   0   0   0   0   
      0   0   0   0   0   
      0   0   0   0   0   
      0   0   0   0   0   
      0   0   0   0   0   
      0   0   0   0   0   
      0   0   0   0   0   
      0   0   0   0   0   
      0   0   0   0   0   
      0   0   0   0   0   
      0   0   0   0   0   
      0   0   0   0   0   
      0   0   0   0   0   
      0   0   0   0   0   
      0   0   0   0   0   
      0   0   0   0   0   
      0   0   0   0   0   
      0   0   0   0   0   
      0   0   0   0   0   
      0   0   0   0   0   
      0   0   0   0   0   
      0   0   0   0   0   
      0   0   0   0   0   
      0   0   0   0   0   
      0   0   0   0   0   
      0   0   0   0   0   
      0   0   0   0   0   
      0   0   0   0   0   
      0   0   0   0   0   
      0   0   0   0   0   
      0   0   0   0   0   
      0   0   0   0   0   
      0   0   0   0   0   
      0   0   0   0   0   
      0   0   0   0   0   
      0   0   0   0   0   
      0   0   0   0   0   
      0   0   0   0   0   
      0   0   0   0   0   
      0   0   0   0   0   
      0   0   0   0   0   
      0   0   0   0   0   
      0   0   0   0   0   
      0   0   0   0   0   
      0   0   0   0   0   
      0   0   0   0   0   
      0   0   0   0   0   
      0   0   0   0   0   
      0   0   0   0   0   
      0   0   0   0   0   
      0   0   0   0   0   
      0   0   0   0   0   
      0   0   0   0   0   
      0   0   0   0   0   
      0   0   0   0   0   
      0   0   0   0   0   
      0   0   0   0   0   
      0   0   0   0   0   
      0   0   0   0   0   
      0   0   0   0   0   
      0   0   0   0   0   
      0   0   0   0   0   
      0   0   0   0   0   
      0   0   0   0   0   
      0   0   0   0   0   
      0   0   0   0   0   
      0   0   0   0   0   
      0   0   0   0   0   
      0   0   0   0   0   
      0   0   0   0   0   
      0   0   0   0   0   
      0   0   0   0   0   
      0   0   0   0   0   
      0   0   0   0   0   
      0   0   0   0   0   
      0   0   0   0   0   
      0   0   0   0   0   
      0   0   0   0   0   
      0   0   0   0   0   
      0   0   0   0   0   
      0   0   0   0   0   
      0   0   0   0   0   
      0   0   0   0   0   
      0   0   0   0   0   
      0   0   0   0   0   
      0   0   0   0   0   
      0   0   0   0   0   
      0   0   0   0   0   
      0   0   0   0   0   
      0   0   0   0   0   
      0   0   0   0   0   
      0   0   0   0   0   
      0   0   0   0   0   
      0   0   0   0   0   
      0   0   0   0   0   
      0   0   0   0   0   
      0   0   0   0   0   
      0   0   0   0   0   
      0   0   0   0   0   
      0   0   0   0   0   
      0   0   0   0   0   
      0   0   0   0   0   
      0   0   0   0   0   
      0   0   0   0   0   
      0   0   0   0   0   
      0   0   0   0   0   
      0   0   0   0   0   
      0   0   0   0   0   
      0   0   0   0   0   
      0   0   0   0   0   
      0   0   0   0   0   
      0   0   0   0   0   
      0   0   0   0   0   
      0   0   0   0   0   
      0   0   0   0   0   
      0   0   0   0   0   
      0   0   0   0   0   
      0   0   0   0   0   
      0   0   0   0   0   
      0   0   0   0   0   
      0   0   0   0   0   
      0   0   0   0   0   
      0   0   0   0   0   
      0   0   0   0   0   
      0   0   0   0   0   
      0   0   0   0   0   
      0   0   0   0   0   
      0   0   0   0   0   
      0   0   0   0   0   
      0   0   0   0   0   
      0   0   0   0   0   
      0   0   0   0   0   
      0   0   0   0   0   
      0   0   0   0   0   
      0   0   0   0   0   
      0   0   0   0   0   
      0   0   0   0   0   
      0   0   0   0   0   
      0   0   0   0   0   
      0   0   0   0   0   
      0   0   0   0   0   
      0   0   0   0   0   
      0   0   0   0   0   
      0   0   0   0   0   
      0   0   0   0   0   
      0   0   0   0   0   
      0   0   0   0   0   
      0   0   0   0   0   
      0   0   0   0   0   
      0   0   0   0   0   
      0   0   0   0   0   
      0   0   0   0   0   
      0   0   0   0   0   
      0   0   0   0   0   
      0   0   0   0   0   
      0   0   0   0   0   
      0   0   0   0   0   
      0   0   0   0   0   
      0   0   0   0   0   
      0   0   0   0   0   
      0   0   0   0   0   
      0   0   0   0   0   
      0   0   0   0   0   
      0   0   0   0   0   
      0   0   0   0   0   
      0   0   0   0   0   
      0   0   0   0   0   
      0   0   0   0   0   
      0   0   0   0   0   
      0   0   0   0   0   
      0   0   0   0   0   
      0   0   0   0   0   
      0   0   0   0   0   
      0   0   0   0   0   
      0   0   0   0   0   
      0   0   0   0   0   
      0   0   0   0   0   
      0   0   0   0   0   
      0   0   0   0   0   
      0   0   0   0   0   
      0   0   0   0   0   
      0   0   0   0   0   
      0   0   0   0   0   
      0   0   0   0   0   
      0   0   0   0   0   
      0   0   0   0   0   
      0   0   0   0   0   
      0   0   0   0   0   
      0   0   0   0   0   
      0   0   0   0   0   
      0   0   0   0   0   
      0   0   0   0   0   
      0   0   0   0   0   
      0   0   0   0   0   
      0   0   0   0   0   
      0   0   0   0   0   
      0   0   0   0   0   
      0   0   0   0   0   
      0   0   0   0   0   
      0   0   0   0   0   
      0   0   0   0   0   
      0   0   0   0   0   
      0   0   0   0   0   
      0   0   0   0   0   
      0   0   0   0   0   
      0   0   0   0   0   
      0   0   0   0   0   
      0   0   0   0   0   
      0   0   0   0   0   
      0   0   0   0   0   
      0   0   0   0   0   
      0   0   0   0   0   
      0   0   0   0   0   
      0   0   0   0   0   
      0   0   0   0   0   
      0   0   0   0   0   
      0   0   0   0   0   
      0   0   0   0   0   
      0   0   0   0   0   
      0   0   0   0   0   
      0   0   0   0   0   
      0   0   0   0   0   
      0   0   0   0   0   
      0   0   0   0   0   
      0   0   0   0   0   
      0   0   0   0   0   
      0   0   0   0   0   
      0   0   0   0   0   
      0   0   0   0   0   
      0   0   0   0   0   
      0   0   0   0   0   
      0.573788070761   0.573775032859   0.573735952718   0.573670931522   0.573580139548   
      0.573463818606   0.573322285452   0.57315593614   0.572965251301   0.572750802286   
      0.572513258128   0.572253393208   0.571972095527   0.571670375392   0.571349374327   
      0.571010373934   0.570654804386   0.570284252194   0.569900466802   0.569505365542   
      0.569101036438   0.568689738319   0.568273897704   0.567856101946   0.567439088165   
      0.567025727619   0.566619005225   0.566221994148   0.565837825519   0.565469653552   
      0.565120616553   0.564793794503   0.564492164125   0.564218552505   0.563975590507   
      0.563765667286   0.563590887281   0.563453031049   0.563353521208   0.563293394639   
      0.563273281912   0.563293394639   0.563353521208   0.563453031049   0.563590887281   
      0.563765667286   0.563975590507   0.564218552505   0.564492164125   0.564793794503   
      0.565120616553   0.565469653552   0.565837825519   0.566221994148   0.566619005225   
      0.567025727619   0.567439088165   0.567856101946   0.568273897704   0.568689738319   
      0.569101036438   0.569505365542   0.569900466802   0.570284252194   0.570654804386   
      0.571010373934   0.571349374327   0.571670375392   0.571972095527   0.572253393208   
      0.572513258128   0.572750802286   0.572965251301   0.57315593614   0.573322285452   
      0.573463818606   0.573580139548   0.573670931522   0.573735952718   0.573775032859   
      0.46215609767   0.462138018771   0.462083827919   0.461993663378   0.461867758008   
      0.461706442878   0.461510152303   0.461279430266   0.461014938166   0.460717463832   
      0.460387931677   0.460027413849   0.459637142175   0.459218520648   0.458773138124   
      0.458302780826   0.45780944421   0.457295343605   0.456762923052   0.456214861634   
      0.455654076596   0.455083722529   0.454507185876   0.453928074116   0.453350199043   
      0.452777553694   0.452214282675   0.451664645824   0.451132975428   0.450623627445   
      0.450140927481   0.449689112542   0.449272269802   0.448894273881   0.448558724246   
      0.448268884474   0.448027625138   0.447837372032   0.447700061337   0.447617103157   
      0.447589354579   0.447617103157   0.447700061337   0.447837372032   0.448027625138   
      0.448268884474   0.448558724246   0.448894273881   0.449272269802   0.449689112542   
      0.450140927481   0.450623627445   0.451132975428   0.451664645824   0.452214282675   
      0.452777553694   0.453350199043   0.453928074116   0.454507185876   0.455083722529   
      0.455654076596   0.456214861634   0.456762923052   0.457295343605   0.45780944421   
      0.458302780826   0.458773138124   0.459218520648   0.459637142175   0.460027413849   
      0.460387931677   0.460717463832   0.461014938166   0.461279430266   0.461510152303   
      0.461706442878   0.461867758008   0.461993663378   0.462083827919   0.462138018771   
      0.437465586164   0.43744218087   0.437372027386   0.437255313854   0.437092356971   
      0.436883606668   0.436629652593   0.43633123236   0.435989241454   0.435604744678   
      0.43517898897   0.434713417345   0.434209683683   0.433669667989   0.433095491653   
      0.432489532195   0.431854436829   0.431193134166   0.430508843232   0.429805078982   
      0.429085653436   0.428354671563   0.427616521113   0.426875855683   0.426137570421   
      0.425406770022   0.424688728839   0.423988843276   0.423312576857   0.422665398737   
      0.422052716682   0.421479805841   0.42095173487   0.420473291167   0.420048907078   
      0.419682589016   0.419377851409   0.419137657285   0.418964367167   0.418859697733   
      0.418824691402   0.418859697733   0.418964367167   0.419137657285   0.419377851409   
      0.419682589016   0.420048907078   0.420473291167   0.42095173487   0.421479805841   
      0.422052716682   0.422665398737   0.423312576857   0.423988843276   0.424688728839   
      0.425406770022   0.426137570421   0.426875855683   0.427616521113   0.428354671563   
      0.429085653436   0.429805078982   0.430508843232   0.431193134166   0.431854436829   
      0.432489532195   0.433095491653   0.433669667989   0.434209683683   0.434713417345   
      0.43517898897   0.435604744678   0.435989241454   0.43633123236   0.436629652593   
      0.436883606668   0.437092356971   0.437255313854   0.437372027386   0.43744218087   
      0.413018513668   0.412989791571   0.412903707503   0.41276050926   0.412560613579   
      0.412304611709   0.411993277133   0.411627575311   0.411208675347   0.410737963346   
      0.410217057235   0.409647822708   0.409032389894   0.408373170235   0.407672872997   
      0.406934520691   0.406161462635   0.405357385777   0.404526321841   0.40367264984   
      0.402801092979   0.401916709058   0.401024873534   0.400131254623   0.399241779957   
      0.398362594627   0.397500010708   0.396660448667   0.395850371423   0.395076212092   
      0.394344296787   0.393660764043   0.393031482661   0.392461969847   0.391957311592   
      0.391522087214   0.391160299863   0.390875314691   0.390669806145   0.390545715639   
      0.390504220607   0.390545715639   0.390669806145   0.390875314691   0.391160299863   
      0.391522087214   0.391957311592   0.392461969847   0.393031482661   0.393660764043   
      0.394344296787   0.395076212092   0.395850371423   0.396660448667   0.397500010708   
      0.398362594627   0.399241779957   0.400131254623   0.401024873534   0.401916709058   
      0.402801092979   0.40367264984   0.404526321841   0.405357385777   0.406161462635   
      0.406934520691   0.407672872997   0.408373170235   0.409032389894   0.409647822708   
      0.410217057235   0.410737963346   0.411208675347   0.411627575311   0.411993277133   
      0.412304611709   0.412560613579   0.41276050926   0.412903707503   0.412989791571   
      0.393837472464   0.393804725378   0.393706584936   0.393543354822   0.393315545286   
      0.393023879249   0.392669300714   0.392252985354   0.391776353072   0.391241082276   
      0.390649125537   0.390002726197   0.389304435427   0.388557129094   0.38776402374   
      0.386928690828   0.386055068375   0.385147468964   0.384210583151   0.383249477248   
      0.382269584511   0.381276688902   0.380276900696   0.379276623485   0.378282512335   
      0.377301423211   0.37634035406   0.375406378324   0.374506571938   0.373647935161   
      0.372837310827   0.372081300746   0.371386182098   0.370757825642   0.370201617539   
      0.36972238645   0.369324337392   0.369010993662   0.368785147911   0.368648823227   
      0.368603244886   0.368648823227   0.368785147911   0.369010993662   0.369324337392   
      0.36972238645   0.370201617539   0.370757825642   0.371386182098   0.372081300746   
      0.372837310827   0.373647935161   0.374506571938   0.375406378324   0.37634035406   
      0.377301423211   0.378282512335   0.379276623485   0.380276900696   0.381276688902   
      0.382269584511   0.383249477248   0.384210583151   0.385147468964   0.386055068375   
      0.386928690828   0.38776402374   0.388557129094   0.389304435427   0.390002726197   
      0.390649125537   0.391241082276   0.391776353072   0.392252985354   0.392669300714   
      0.393023879249   0.393315545286   0.393543354822   0.393706584936   0.393804725378   
      0.378827179026   0.378791682861   0.37868531071   0.3785084129   0.378261577606   
      0.377945637213   0.377561677051   0.377111046333   0.376595371023   0.376016568344   
      0.37537686248   0.374678800986   0.373925271287   0.373119516549   0.372265150098   
      0.371366167482   0.370426955183   0.369452294951   0.368447362724   0.367417721145   
      0.366369304771   0.365308397259   0.364241599981   0.363175791846   0.362118080363   
      0.361075744363   0.360056169106   0.359066774831   0.358114940109   0.357207921556   
      0.356352771634   0.355556256318   0.354824774396   0.354164280081   0.35358021043   
      0.353077418881   0.352660115993   0.352331818214   0.352095305318   0.351952586955   
      0.351904878579   0.351952586955   0.352095305318   0.352331818214   0.352660115993   
      0.353077418881   0.35358021043   0.354164280081   0.354824774396   0.355556256318   
      0.356352771634   0.357207921556   0.358114940109   0.359066774831   0.360056169106   
      0.361075744363   0.362118080363   0.363175791846   0.364241599981   0.365308397259   
      0.366369304771   0.367417721145   0.368447362724   0.369452294951   0.370426955183   
      0.371366167482   0.372265150098   0.373119516549   0.373925271287   0.374678800986   
      0.37537686248   0.376016568344   0.376595371023   0.377111046333   0.377561677051   
      0.377945637213   0.378261577606   0.3785084129   0.37868531071   0.378791682861   
      0.368013555392   0.367976369073   0.367864938113   0.367679647824   0.367421144764   
      0.367090343195   0.366688433912   0.366216895242   0.365677505905   0.365072359366   
      0.364403879191   0.363674834848   0.362888357244   0.362047953218   0.361157518093   
      0.36022134532   0.359244132164   0.358230980407   0.357187391016   0.356119251857   
      0.355032817646   0.353934681539   0.352831738032   0.351731137151   0.350640230246   
      0.349566508048   0.348517532028   0.347500860335   0.34652396989   0.345594176331   
      0.344718553606   0.343903854957   0.343156436948   0.342482187995   0.341886462609   
      0.341374022309   0.340948983877   0.340614775387   0.340374100246   0.340228909288   
      0.340180380928   0.340228909288   0.340374100246   0.340614775387   0.340948983877   
      0.341374022309   0.341886462609   0.342482187995   0.343156436948   0.343903854957   
      0.344718553606   0.345594176331   0.34652396989   0.347500860335   0.348517532028   
      0.349566508048   0.350640230246   0.351731137151   0.352831738032   0.353934681539   
      0.355032817646   0.356119251857   0.357187391016   0.358230980407   0.359244132164   
      0.36022134532   0.361157518093   0.362047953218   0.362888357244   0.363674834848   
      0.364403879191   0.365072359366   0.365677505905   0.366216895242   0.366688433912   
      0.367090343195   0.367421144764   0.367679647824   0.367864938113   0.367976369073   
      0.361085402866   0.361047277897   0.360933038704   0.360743093754   0.360478128219   
      0.360139110445   0.359727300781   0.359244262525   0.358691874652   0.358072345913   
      0.357388229777   0.356642439589   0.355838263203   0.354979376249   0.354069853095   
      0.353114174491   0.352117230839   0.351084320044   0.350021138943   0.348933767414   
      0.347828644476   0.346712535873   0.345592492994   0.344475803254   0.343369932471   
      0.342282460087   0.341221008455   0.340193167649   0.339206417496   0.338268048604   
      0.337385084184   0.336564204385   0.33581167465   0.335133279379   0.33453426188   
      0.334019271288   0.333592316834   0.333256729592   0.333015131647   0.332869412486   
      0.332820712372   0.332869412486   0.333015131647   0.333256729592   0.333592316834   
      0.334019271288   0.33453426188   0.335133279379   0.33581167465   0.336564204385   
      0.337385084184   0.338268048604   0.339206417496   0.340193167649   0.341221008455   
      0.342282460087   0.343369932471   0.344475803254   0.345592492994   0.346712535873   
      0.347828644476   0.348933767414   0.350021138943   0.351084320044   0.352117230839   
      0.353114174491   0.354069853095   0.354979376249   0.355838263203   0.356642439589   
      0.357388229777   0.358072345913   0.358691874652   0.359244262525   0.359727300781   
      0.360139110445   0.360478128219   0.360743093754   0.360933038704   0.361047277897   
      0.357721822708   0.357683285701   0.357567814233   0.357375828295   0.357108032262   
      0.35676542136   0.356349290468   0.355861245012   0.355303213585   0.354677461877   
      0.353986607342   0.353233633967   0.352421906374   0.351555182369   0.350637623005   
      0.349673799106   0.348668693207   0.347627695848   0.346556595259   0.345461559554   
      0.344349110804   0.343226090548   0.342099616683   0.340977031942   0.339865844608   
      0.338773662418   0.337708120963   0.33667680814   0.335687186394   0.334746514574   
      0.333861771197   0.33303958078   0.332286144709   0.331607177805   0.331007851453   
      0.33049274382   0.330065797396   0.329730283832   0.32948877586   0.329343125975   
      0.329294451539   0.329343125975   0.32948877586   0.329730283832   0.330065797396   
      0.33049274382   0.331007851453   0.331607177805   0.332286144709   0.33303958078   
      0.333861771197   0.334746514574   0.335687186394   0.33667680814   0.337708120963   
      0.338773662418   0.339865844608   0.340977031942   0.342099616683   0.343226090548   
      0.344349110804   0.345461559554   0.346556595259   0.347627695848   0.348668693207   
      0.349673799106   0.350637623005   0.351555182369   0.352421906374   0.353233633967   
      0.353986607342   0.354677461877   0.355303213585   0.355861245012   0.356349290468   
      0.35676542136   0.357108032262   0.357375828295   0.357567814233   0.357683285701   
      0.357721822708   0.357683285701   0.357567814233   0.357375828295   0.357108032262   
      0.35676542136   0.356349290468   0.355861245012   0.355303213585   0.354677461877   
      0.353986607342   0.353233633967   0.352421906374   0.351555182369   0.350637623005   
      0.349673799106   0.348668693207   0.347627695848   0.346556595259   0.345461559554   
      0.344349110804   0.343226090548   0.342099616683   0.340977031942   0.339865844608   
      0.338773662418   0.337708120963   0.33667680814   0.335687186394   0.334746514574   
      0.333861771197   0.33303958078   0.332286144709   0.331607177805   0.331007851453   
      0.33049274382   0.330065797396   0.329730283832   0.32948877586   0.329343125975   
      0.329294451539   0.329343125975   0.32948877586   0.329730283832   0.330065797396   
      0.33049274382   0.331007851453   0.331607177805   0.332286144709   0.33303958078   
      0.333861771197   0.334746514574   0.335687186394   0.33667680814   0.337708120963   
      0.338773662418   0.339865844608   0.340977031942   0.342099616683   0.343226090548   
      0.344349110804   0.345461559554   0.346556595259   0.347627695848   0.348668693207   
      0.349673799106   0.350637623005   0.351555182369   0.352421906374   0.353233633967   
      0.353986607342   0.354677461877   0.355303213585   0.355861245012   0.356349290468   
      0.35676542136   0.357108032262   0.357375828295   0.357567814233   0.357683285701   
      0.361085402866   0.361047277897   0.360933038704   0.360743093754   0.360478128219   
      0.360139110445   0.359727300781   0.359244262525   0.358691874652   0.358072345913   
      0.357388229777   0.356642439589   0.355838263203   0.354979376249   0.354069853095   
      0.353114174491   0.352117230839   0.351084320044   0.350021138943   0.348933767414   
      0.347828644476   0.346712535873   0.345592492994   0.344475803254   0.343369932471   
      0.342282460087   0.341221008455   0.340193167649   0.339206417496   0.338268048604   
      0.337385084184   0.336564204385   0.33581167465   0.335133279379   0.33453426188   
      0.334019271288   0.333592316834   0.333256729592   0.333015131647   0.332869412486   
      0.332820712372   0.332869412486   0.333015131647   0.333256729592   0.333592316834   
      0.334019271288   0.33453426188   0.335133279379   0.33581167465   0.336564204385   
      0.337385084184   0.338268048604   0.339206417496   0.340193167649   0.341221008455   
      0.342282460087   0.343369932471   0.344475803254   0.345592492994   0.346712535873   
      0.347828644476   0.348933767414   0.350021138943   0.351084320044   0.352117230839   
      0.353114174491   0.354069853095   0.354979376249   0.355838263203   0.356642439589   
      0.357388229777   0.358072345913   0.358691874652   0.359244262525   0.359727300781   
      0.360139110445   0.360478128219   0.360743093754   0.360933038704   0.361047277897   
      0.368013555392   0.367976369073   0.367864938113   0.367679647824   0.367421144764   
      0.367090343195   0.366688433912   0.366216895242   0.365677505905   0.365072359366   
      0.364403879191   0.363674834848   0.362888357244   0.362047953218   0.361157518093   
      0.36022134532   0.359244132164   0.358230980407   0.357187391016   0.356119251857   
      0.355032817646   0.353934681539   0.352831738032   0.351731137151   0.350640230246   
      0.349566508048   0.348517532028   0.347500860335   0.34652396989   0.345594176331   
      0.344718553606   0.343903854957   0.343156436948   0.342482187995   0.341886462609   
      0.341374022309   0.340948983877   0.340614775387   0.340374100246   0.340228909288   
      0.340180380928   0.340228909288   0.340374100246   0.340614775387   0.340948983877   
      0.341374022309   0.341886462609   0.342482187995   0.343156436948   0.343903854957   
      0.344718553606   0.345594176331   0.34652396989   0.347500860335   0.348517532028   
      0.349566508048   0.350640230246   0.351731137151   0.352831738032   0.353934681539   
      0.355032817646   0.356119251857   0.357187391016   0.358230980407   0.359244132164   
      0.36022134532   0.361157518093   0.362047953218   0.362888357244   0.363674834848   
      0.364403879191   0.365072359366   0.365677505905   0.366216895242   0.366688433912   
      0.367090343195   0.367421144764   0.367679647824   0.367864938113   0.367976369073   
      0.378827179026   0.378791682861   0.37868531071   0.3785084129   0.378261577606   
      0.377945637213   0.377561677051   0.377111046333   0.376595371023   0.376016568344   
      0.37537686248   0.374678800986   0.373925271287   0.373119516549   0.372265150098   
      0.371366167482   0.370426955183   0.369452294951   0.368447362724   0.367417721145   
      0.366369304771   0.365308397259   0.364241599981   0.363175791846   0.362118080363   
      0.361075744363   0.360056169106   0.359066774831   0.358114940109   0.357207921556   
      0.356352771634   0.355556256318   0.354824774396   0.354164280081   0.35358021043   
      0.353077418881   0.352660115993   0.352331818214   0.352095305318   0.351952586955   
      0.351904878579   0.351952586955   0.352095305318   0.352331818214   0.352660115993   
      0.353077418881   0.35358021043   0.354164280081   0.354824774396   0.355556256318   
      0.356352771634   0.357207921556   0.358114940109   0.359066774831   0.360056169106   
      0.361075744363   0.362118080363   0.363175791846   0.364241599981   0.365308397259   
      0.366369304771   0.367417721145   0.368447362724   0.369452294951   0.370426955183   
      0.371366167482   0.372265150098   0.373119516549   0.373925271287   0.374678800986   
      0.37537686248   0.376016568344   0.376595371023   0.377111046333   0.377561677051   
      0.377945637213   0.378261577606   0.3785084129   0.37868531071   0.378791682861   
      0.393837472464   0.393804725378   0.393706584936   0.393543354822   0.393315545286   
      0.393023879249   0.392669300714   0.392252985354   0.391776353072   0.391241082276   
      0.390649125537   0.390002726197   0.389304435427   0.388557129094   0.38776402374   
      0.386928690828   0.386055068375   0.385147468964   0.384210583151   0.383249477248   
      0.382269584511   0.381276688902   0.380276900696   0.379276623485   0.378282512335   
      0.377301423211   0.37634035406   0.375406378324   0.374506571938   0.373647935161   
      0.372837310827   0.372081300746   0.371386182098   0.370757825642   0.370201617539   
      0.36972238645   0.369324337392   0.369010993662   0.368785147911   0.368648823227   
      0.368603244886   0.368648823227   0.368785147911   0.369010993662   0.369324337392   
      0.36972238645   0.370201617539   0.370757825642   0.371386182098   0.372081300746   
      0.372837310827   0.373647935161   0.374506571938   0.375406378324   0.37634035406   
      0.377301423211   0.378282512335   0.379276623485   0.380276900696   0.381276688902   
      0.382269584511   0.383249477248   0.384210583151   0.385147468964   0.386055068375   
      0.386928690828   0.38776402374   0.388557129094   0.389304435427   0.390002726197   
      0.390649125537   0.391241082276   0.391776353072   0.392252985354   0.392669300714   
      0.393023879249   0.393315545286   0.393543354822   0.393706584936   0.393804725378   