<?xml version="1.0"?>
<VTKFile type="ImageData" version="0.1" byte_order="LittleEndian">
  <ImageData WholeExtent="0 79 0 19 0 19" Origin="0 0 0" Spacing="1 1 1">
  <Piece Extent="0 79 0 19 0 19">
    <PointData Scalars="density">
       <DataArray type="Float32" Name="bluedensity" NumberOfComponents="1" format="ascii">
      0   0   0   0   0   
      0   0   0   0   0   
      0   0   0   0   0   
      0   0   0   0   0   
      0   0   0   0   0   
      0   0   0   0   0   
      0   0   0   0   0   
      0   0   0   0   0   
      0   0   0   0   0   
      0   0   0   0   0   
      0   0   0   0   0   
      0   0   0   0   0   
      0   0   0   0   0   
      0   0   0   0   0   
      0   0   0   0   0   
      0   0   0   0   0   
      0   0   0   0   0   
      0   0   0   0   0   
      0   0   0   0   0   
      0   0   0   0   0   
      0   0   0   0   0   
      0   0   0   0   0   
      0   0   0   0   0   
      0   0   0   0   0   
      0   0   0   0   0   
      0   0   0   0   0   
      0   0   0   0   0   
      0   0   0   0   0   
      0   0   0   0   0   
      0   0   0   0   0   
      0   0   0   0   0   
      0   0   0   0   0   
      0   0   0   0   0   
      0   0   0   0   0   
      0   0   0   0   0   
      0   0   0   0   0   
      0   0   0   0   0   
      0   0   0   0   0   
      0   0   0   0   0   
      0   0   0   0   0   
      0   0   0   0   0   
      0   0   0   0   0   
      0   0   0   0   0   
      0   0   0   0   0   
      0   0   0   0   0   
      0   0   0   0   0   
      0   0   0   0   0   
      0   0   0   0   0   
      0   0   0   0   0   
      0   0   0   0   0   
      0   0   0   0   0   
      0   0   0   0   0   
      0   0   0   0   0   
      0   0   0   0   0   
      0   0   0   0   0   
      0   0   0   0   0   
      0   0   0   0   0   
      0   0   0   0   0   
      0   0   0   0   0   
      0   0   0   0   0   
      0   0   0   0   0   
      0   0   0   0   0   
      0   0   0   0   0   
      0   0   0   0   0   
      0   0   0   0   0   
      0   0   0   0   0   
      0   0   0   0   0   
      0   0   0   0   0   
      0   0   0   0   0   
      0   0   0   0   0   
      0   0   0   0   0   
      0   0   0   0   0   
      0   0   0   0   0   
      0   0   0   0   0   
      0   0   0   0   0   
      0   0   0   0   0   
      0   0   0   0   0   
      0   0   0   0   0   
      0   0   0   0   0   
      0   0   0   0   0   
      0   0   0   0   0   
      0   0   0   0   0   
      0   0   0   0   0   
      0   0   0   0   0   
      0   0   0   0   0   
      0   0   0   0   0   
      0   0   0   0   0   
      0   0   0   0   0   
      0   0   0   0   0   
      0   0   0   0   0   
      0   0   0   0   0   
      0   0   0   0   0   
      0   0   0   0   0   
      0   0   0   0   0   
      0   0   0   0   0   
      0   0   0   0   0   
      0   0   0   0   0   
      0   0   0   0   0   
      0   0   0   0   0   
      0   0   0   0   0   
      0   0   0   0   0   
      0   0   0   0   0   
      0   0   0   0   0   
      0   0   0   0   0   
      0   0   0   0   0   
      0   0   0   0   0   
      0   0   0   0   0   
      0   0   0   0   0   
      0   0   0   0   0   
      0   0   0   0   0   
      0   0   0   0   0   
      0   0   0   0   0   
      0   0   0   0   0   
      0   0   0   0   0   
      0   0   0   0   0   
      0   0   0   0   0   
      0   0   0   0   0   
      0   0   0   0   0   
      0   0   0   0   0   
      0   0   0   0   0   
      0   0   0   0   0   
      0   0   0   0   0   
      0   0   0   0   0   
      0   0   0   0   0   
      0   0   0   0   0   
      0   0   0   0   0   
      0   0   0   0   0   
      0   0   0   0   0   
      0   0   0   0   0   
      0   0   0   0   0   
      0   0   0   0   0   
      0   0   0   0   0   
      0   0   0   0   0   
      0   0   0   0   0   
      0   0   0   0   0   
      0   0   0   0   0   
      0   0   0   0   0   
      0   0   0   0   0   
      0   0   0   0   0   
      0   0   0   0   0   
      0   0   0   0   0   
      0   0   0   0   0   
      0   0   0   0   0   
      0   0   0   0   0   
      0   0   0   0   0   
      0   0   0   0   0   
      0   0   0   0   0   
      0   0   0   0   0   
      0   0   0   0   0   
      0   0   0   0   0   
      0   0   0   0   0   
      0   0   0   0   0   
      0   0   0   0   0   
      0   0   0   0   0   
      0   0   0   0   0   
      0   0   0   0   0   
      0   0   0   0   0   
      0   0   0   0   0   
      0   0   0   0   0   
      0   0   0   0   0   
      0   0   0   0   0   
      0   0   0   0   0   
      0   0   0   0   0   
      0   0   0   0   0   
      0   0   0   0   0   
      0   0   0   0   0   
      0   0   0   0   0   
      0   0   0   0   0   
      0   0   0   0   0   
      0   0   0   0   0   
      0   0   0   0   0   
      0   0   0   0   0   
      0   0   0   0   0   
      0   0   0   0   0   
      0   0   0   0   0   
      0   0   0   0   0   
      0   0   0   0   0   
      0   0   0   0   0   
      0   0   0   0   0   
      0   0   0   0   0   
      0   0   0   0   0   
      0   0   0   0   0   
      0   0   0   0   0   
      0   0   0   0   0   
      0   0   0   0   0   
      0   0   0   0   0   
      0   0   0   0   0   
      0   0   0   0   0   
      0   0   0   0   0   
      0   0   0   0   0   
      0   0   0   0   0   
      0   0   0   0   0   
      0   0   0   0   0   
      0   0   0   0   0   
      0   0   0   0   0   
      0   0   0   0   0   
      0   0   0   0   0   
      0   0   0   0   0   
      0   0   0   0   0   
      0   0   0   0   0   
      0   0   0   0   0   
      0   0   0   0   0   
      0   0   0   0   0   
      0   0   0   0   0   
      0   0   0   0   0   
      0   0   0   0   0   
      0   0   0   0   0   
      0   0   0   0   0   
      0   0   0   0   0   
      0   0   0   0   0   
      0   0   0   0   0   
      0   0   0   0   0   
      0   0   0   0   0   
      0   0   0   0   0   
      0   0   0   0   0   
      0   0   0   0   0   
      0   0   0   0   0   
      0   0   0   0   0   
      0   0   0   0   0   
      0   0   0   0   0   
      0   0   0   0   0   
      0   0   0   0   0   
      0   0   0   0   0   
      0   0   0   0   0   
      0   0   0   0   0   
      0   0   0   0   0   
      0   0   0   0   0   
      0   0   0   0   0   
      0   0   0   0   0   
      0   0   0   0   0   
      0   0   0   0   0   
      0   0   0   0   0   
      0   0   0   0   0   
      0   0   0   0   0   
      0   0   0   0   0   
      0   0   0   0   0   
      0   0   0   0   0   
      0   0   0   0   0   
      0   0   0   0   0   
      0   0   0   0   0   
      0   0   0   0   0   
      0   0   0   0   0   
      0   0   0   0   0   
      0   0   0   0   0   
      0   0   0   0   0   
      0   0   0   0   0   
      0   0   0   0   0   
      0   0   0   0   0   
      0   0   0   0   0   
      0   0   0   0   0   
      0   0   0   0   0   
      0   0   0   0   0   
      0   0   0   0   0   
      0   0   0   0   0   
      0   0   0   0   0   
      0   0   0   0   0   
      0   0   0   0   0   
      0   0   0   0   0   
      0   0   0   0   0   
      0   0   0   0   0   
      0   0   0   0   0   
      0   0   0   0   0   
      0   0   0   0   0   
      0   0   0   0   0   
      0   0   0   0   0   
      0   0   0   0   0   
      0   0   0   0   0   
      0   0   0   0   0   
      0   0   0   0   0   
      0   0   0   0   0   
      0   0   0   0   0   
      0   0   0   0   0   
      0   0   0   0   0   
      0   0   0   0   0   
      0   0   0   0   0   
      0   0   0   0   0   
      0   0   0   0   0   
      0   0   0   0   0   
      0   0   0   0   0   
      0   0   0   0   0   
      0   0   0   0   0   
      0   0   0   0   0   
      0   0   0   0   0   
      0   0   0   0   0   
      0   0   0   0   0   
      0   0   0   0   0   
      0   0   0   0   0   
      0   0   0   0   0   
      0   0   0   0   0   
      0   0   0   0   0   
      0   0   0   0   0   
      0   0   0   0   0   
      0   0   0   0   0   
      0   0   0   0   0   
      0   0   0   0   0   
      0   0   0   0   0   
      0   0   0   0   0   
      0   0   0   0   0   
      0   0   0   0   0   
      0   0   0   0   0   
      0   0   0   0   0   
      0   0   0   0   0   
      0   0   0   0   0   
      0   0   0   0   0   
      0   0   0   0   0   
      0   0   0   0   0   
      0   0   0   0   0   
      0   0   0   0   0   
      0   0   0   0   0   
      0   0   0   0   0   
      0   0   0   0   0   
      0   0   0   0   0   
      0   0   0   0   0   
      0   0   0   0   0   
      0   0   0   0   0   
      0   0   0   0   0   
      0   0   0   0   0   
      0   0   0   0   0   
      0   0   0   0   0   
      0   0   0   0   0   
      0   0   0   0   0   
      0   0   0   0   0   
      0   0   0   0   0   
      0   0   0   0   0   
      0   0   0   0   0   
      0   0   0   0   0   
      0   0   0   0   0   
      0   0   0   0   0   
      0   0   0   0   0   
      0   0   0   0   0   
      0   0   0   0   0   
      0   0   0   0   0   
      0   0   0   0   0   
      0   0   0   0   0   
      0   0   0   0   0   
      0   0   0   0   0   
      0.578951445198   0.578926329201   0.578850969675   0.578725332742   0.578549364428   
      0.578322994596   0.578046142817   0.577718726611   0.577340672537   0.576911930802   
      0.576432494132   0.575902421793   0.575321869673   0.574691127416   0.574010663472   
      0.573281178812   0.572503669679   0.571679499306   0.57081047781   0.569898948637   
      0.56894787886   0.567960949555   0.566942641301   0.565898308855   0.564834238296   
      0.563757679612   0.562676847882   0.561600887098   0.560539792108   0.5595042863   
      0.558505655119   0.557555538346   0.556665686797   0.555847691656   0.555112696691   
      0.554471105053   0.553932293005   0.553504342918   0.553193807103   0.553005512701   
      0.55294241604   0.553005512701   0.553193807103   0.553504342918   0.553932293005   
      0.554471105053   0.555112696691   0.555847691656   0.556665686797   0.557555538346   
      0.558505655119   0.5595042863   0.560539792108   0.561600887098   0.562676847882   
      0.563757679612   0.564834238296   0.565898308855   0.566942641301   0.567960949555   
      0.56894787886   0.569898948637   0.57081047781   0.571679499306   0.572503669679   
      0.573281178812   0.574010663472   0.574691127416   0.575321869673   0.575902421793   
      0.576432494132   0.576911930802   0.577340672537   0.577718726611   0.578046142817   
      0.578322994596   0.578549364428   0.578725332742   0.578850969675   0.578926329201   
      0.469627101929   0.469592501118   0.469488674868   0.469315552937   0.469073022381   
      0.468760934042   0.468379112216   0.467927368111   0.467405517867   0.466813406098   
      0.466150936042   0.465418107574   0.464615064343   0.463742151292   0.46279998364   
      0.461789528031   0.460712196028   0.459569949258   0.458365414484   0.45710200554   
      0.455784047594   0.45441689767   0.453007053935   0.451562245115   0.450091490789   
      0.448605123411   0.447114763798   0.44563324365   0.444174471273   0.442753239937   
      0.441384981861   0.440085474425   0.438870508384   0.437755530414   0.436755273919   
      0.435883392742   0.435152112077   0.434571909871   0.434151240299   0.433896308891   
      0.433810906726   0.433896308891   0.434151240299   0.434571909871   0.435152112077   
      0.435883392742   0.436755273919   0.437755530414   0.438870508384   0.440085474425   
      0.441384981861   0.442753239937   0.444174471273   0.44563324365   0.447114763798   
      0.448605123411   0.450091490789   0.451562245115   0.453007053935   0.45441689767   
      0.455784047594   0.45710200554   0.458365414484   0.459569949258   0.460712196028   
      0.461789528031   0.46279998364   0.463742151292   0.464615064343   0.465418107574   
      0.466150936042   0.466813406098   0.467405517867   0.467927368111   0.468379112216   
      0.468760934042   0.469073022381   0.469315552937   0.469488674868   0.469592501118   
      0.447403840092   0.447358771874   0.447223541538   0.446998073896   0.446682249962   
      0.446275916834   0.445778902322   0.445191035121   0.444512171532   0.443742229956   
      0.442881234526   0.441929369361   0.440887044899   0.439754977605   0.438534284014   
      0.437226589407   0.435834150558   0.43435999072   0.432808043528   0.431183300731   
      0.429491956822   0.427741541879   0.425941032515   0.424100930047   0.422233295007   
      0.42035172828   0.41847129133   0.416608361249   0.41478042034   0.413005784364   
      0.411303277756   0.40969186779   0.408190272198   0.40681655607   0.405587733806   
      0.404519390646   0.403625336212   0.402917299855   0.402404674962   0.402094316909   
      0.40199039744   0.402094316909   0.402404674962   0.402917299855   0.403625336212   
      0.404519390646   0.405587733806   0.40681655607   0.408190272198   0.40969186779   
      0.411303277756   0.413005784364   0.41478042034   0.416608361249   0.41847129133   
      0.42035172828   0.422233295007   0.424100930047   0.425941032515   0.427741541879   
      0.429491956822   0.431183300731   0.432808043528   0.43435999072   0.435834150558   
      0.437226589407   0.438534284014   0.439754977605   0.440887044899   0.441929369361   
      0.442881234526   0.443742229956   0.444512171532   0.445191035121   0.445778902322   
      0.446275916834   0.446682249962   0.446998073896   0.447223541538   0.447358771874   
      0.425490500408   0.425434560928   0.425266724956   0.424986942534   0.424595139363   
      0.424091230739   0.423475142065   0.42274683691   0.421906353842   0.420953853478   
      0.419889677315   0.418714419937   0.417429016063   0.416034843518   0.414533842595   
      0.412928651266   0.411222754385   0.409420643295   0.407527980295   0.405551760249   
      0.403500459593   0.401384161296   0.399214643367   0.397005418542   0.394771714171   
      0.392530384018   0.390299747719   0.38809935858   0.385949705706   0.383871861525   
      0.381887089845   0.38001643217   0.378280290785   0.376698026027   0.375287582558   
      0.374065155741   0.373044905076   0.372238717694   0.371656021615   0.371303646212   
      0.371185726288   0.371303646212   0.371656021615   0.372238717694   0.373044905076   
      0.374065155741   0.375287582558   0.376698026027   0.378280290785   0.38001643217   
      0.381887089845   0.383871861525   0.385949705706   0.38809935858   0.390299747719   
      0.392530384018   0.394771714171   0.397005418542   0.399214643367   0.401384161296   
      0.403500459593   0.405551760249   0.407527980295   0.409420643295   0.411222754385   
      0.412928651266   0.414533842595   0.416034843518   0.417429016063   0.418714419937   
      0.419889677315   0.420953853478   0.421906353842   0.42274683691   0.423475142065   
      0.424091230739   0.424595139363   0.424986942534   0.425266724956   0.425434560928   
      0.408309828155   0.408245208022   0.408051346725   0.407728244968   0.407275915411   
      0.406694400498   0.405983798554   0.405144299298   0.404176230129   0.403080114759   
      0.401856745826   0.400507273026   0.399033307999   0.397437046578   0.395721408032   
      0.393890189566   0.391948232537   0.389901594717   0.387757720561   0.385525599122   
      0.383215897279   0.380841054715   0.37841532701   0.375954764665   0.373477118884   
      0.371001669628   0.368548977212   0.366140565071   0.363798547282   0.361545219251   
      0.359402632808   0.357392177451   0.355534187582   0.353847591662   0.352349613883   
      0.351055533198   0.349978499004   0.349129398276   0.348516765905   0.348146728566   
      0.348022972667   0.348146728566   0.348516765905   0.349129398276   0.349978499004   
      0.351055533198   0.352349613883   0.353847591662   0.355534187582   0.357392177451   
      0.359402632808   0.361545219251   0.363798547282   0.366140565071   0.368548977212   
      0.371001669628   0.373477118884   0.375954764665   0.37841532701   0.380841054715   
      0.383215897279   0.385525599122   0.387757720561   0.389901594717   0.391948232537   
      0.393890189566   0.395721408032   0.397437046578   0.399033307999   0.400507273026   
      0.401856745826   0.403080114759   0.404176230129   0.405144299298   0.405983798554   
      0.406694400498   0.407275915411   0.407728244968   0.408051346725   0.408245208022   
      0.394728630068   0.394657736702   0.394445074577   0.394090701678   0.393594728411   
      0.392957338894   0.392178822051   0.391259613728   0.390200351294   0.389001942348   
      0.387665649131   0.386193190003   0.384586858844   0.382849662316   0.380985473642   
      0.378999199737   0.376896956385   0.374686243623   0.37237611093   0.369977299501   
      0.367502347259   0.364965641799   0.362383407598   0.359773616786   0.357155817688   
      0.354550881685   0.351980676184   0.349467678555   0.347034551753   0.344703706018   
      0.342496871949   0.340434708144   0.33853646197   0.3368196955   0.335300081403   
      0.333991266522   0.332904794995   0.332050078578   0.331434399641   0.331062932095   
      0.33093876695   0.331062932095   0.331434399641   0.332050078578   0.332904794995   
      0.333991266522   0.335300081403   0.3368196955   0.33853646197   0.340434708144   
      0.342496871949   0.344703706018   0.347034551753   0.349467678555   0.351980676184   
      0.354550881685   0.357155817688   0.359773616786   0.362383407598   0.364965641799   
      0.367502347259   0.369977299501   0.37237611093   0.374686243623   0.376896956385   
      0.378999199737   0.380985473642   0.382849662316   0.384586858844   0.386193190003   
      0.387665649131   0.389001942348   0.390200351294   0.391259613728   0.392178822051   
      0.392957338894   0.393594728411   0.394090701678   0.394445074577   0.394657736702   
      0.384838609767   0.384763613948   0.38453866101   0.384163859161   0.383639404428   
      0.382965604879   0.382142915909   0.381171987855   0.380053727479   0.378789374893   
      0.377380597451   0.375829601709   0.374139263863   0.372313277911   0.370356319168   
      0.368274218638   0.366074141273   0.363764758391   0.361356401873   0.358861185648   
      0.35629307881   0.353667915175   0.351003326395   0.348318590272   0.345634392264   
      0.342972505945   0.340355406199   0.337805836167   0.335346354101   0.332998888429   
      0.330784328143   0.328722171122   0.326830246115   0.325124515788   0.32361895985   
      0.322325529865   0.321254161766   0.320412828717   0.319807615832   0.319442799149   
      0.319320913699   0.319442799149   0.319807615832   0.320412828717   0.321254161766   
      0.322325529865   0.32361895985   0.325124515788   0.326830246115   0.328722171122   
      0.330784328143   0.332998888429   0.335346354101   0.337805836167   0.340355406199   
      0.342972505945   0.345634392264   0.348318590272   0.351003326395   0.353667915175   
      0.35629307881   0.358861185648   0.361356401873   0.363764758391   0.366074141273   
      0.368274218638   0.370356319168   0.372313277911   0.374139263863   0.375829601709   
      0.377380597451   0.378789374893   0.380053727479   0.381171987855   0.382142915909   
      0.382965604879   0.383639404428   0.384163859161   0.38453866101   0.384763613948   
      0.378448923636   0.378371508164   0.378139308136   0.37775246778   0.377211244593   
      0.376516035739   0.375667416435   0.374666191619   0.373513462444   0.372210709136   
      0.370759891614   0.369163568747   0.367425036257   0.365548481922   0.363539154873   
      0.361403543468   0.359149553463   0.356786675406   0.354326127496   0.351780958267   
      0.349166092814   0.346498307437   0.343796120944   0.341079596421   0.33837005475   
      0.335689709718   0.333061242959   0.330507343993   0.328050244912   0.325711280062   
      0.323510498169   0.321466348129   0.319595451331   0.317912464007   0.316430024259   
      0.315158771131   0.31410741798   0.313282859889   0.312690294567   0.31233333787   
      0.312214118183   0.31233333787   0.312690294567   0.313282859889   0.31410741798   
      0.315158771131   0.316430024259   0.317912464007   0.319595451331   0.321466348129   
      0.323510498169   0.325711280062   0.328050244912   0.330507343993   0.333061242959   
      0.335689709718   0.33837005475   0.341079596421   0.343796120944   0.346498307437   
      0.349166092814   0.351780958267   0.354326127496   0.356786675406   0.359149553463   
      0.361403543468   0.363539154873   0.365548481922   0.367425036257   0.369163568747   
      0.370759891614   0.372210709136   0.373513462444   0.374666191619   0.375667416435   
      0.376516035739   0.377211244593   0.37775246778   0.378139308136   0.378371508164   
      0.375330791135   0.375252262443   0.375016728903   0.374624353416   0.374075425378   
      0.373370388244   0.372509879584   0.371494784913   0.370326306843   0.369006051069   
      0.367536130488   0.365919288213   0.364159039221   0.36225982898   0.36022720538   
      0.358067997856   0.355790494777   0.353404607273   0.350922005075   0.348356208188   
      0.345722617874   0.343038472023   0.340322713868   0.337595769192   0.334879235158   
      0.332195492814   0.329567263859   0.327017139052   0.324567109362   0.322238131012   
      0.320049751693   0.318019818193   0.316164276521   0.314497065893   0.313030098926   
      0.311773313267   0.310734775177   0.309920813491   0.309336162604   0.308984095229   
      0.308866529001   0.308984095229   0.309336162604   0.309920813491   0.310734775177   
      0.311773313267   0.313030098926   0.314497065893   0.316164276521   0.318019818193   
      0.320049751693   0.322238131012   0.324567109362   0.327017139052   0.329567263859   
      0.332195492814   0.334879235158   0.337595769192   0.340322713868   0.343038472023   
      0.345722617874   0.348356208188   0.350922005075   0.353404607273   0.355790494777   
      0.358067997856   0.36022720538   0.36225982898   0.364159039221   0.365919288213   
      0.367536130488   0.369006051069   0.370326306843   0.371494784913   0.372509879584   
      0.373370388244   0.374075425378   0.374624353416   0.375016728903   0.375252262443   
      0.375330791135   0.375252262443   0.375016728903   0.374624353416   0.374075425378   
      0.373370388244   0.372509879584   0.371494784913   0.370326306843   0.369006051069   
      0.367536130488   0.365919288213   0.364159039221   0.36225982898   0.36022720538   
      0.358067997856   0.355790494777   0.353404607273   0.350922005075   0.348356208188   
      0.345722617874   0.343038472023   0.340322713868   0.337595769192   0.334879235158   
      0.332195492814   0.329567263859   0.327017139052   0.324567109362   0.322238131012   
      0.320049751693   0.318019818193   0.316164276521   0.314497065893   0.313030098926   
      0.311773313267   0.310734775177   0.309920813491   0.309336162604   0.308984095229   
      0.308866529001   0.308984095229   0.309336162604   0.309920813491   0.310734775177   
      0.311773313267   0.313030098926   0.314497065893   0.316164276521   0.318019818193   
      0.320049751693   0.322238131012   0.324567109362   0.327017139052   0.329567263859   
      0.332195492814   0.334879235158   0.337595769192   0.340322713868   0.343038472023   
      0.345722617874   0.348356208188   0.350922005075   0.353404607273   0.355790494777   
      0.358067997856   0.36022720538   0.36225982898   0.364159039221   0.365919288213   
      0.367536130488   0.369006051069   0.370326306843   0.371494784913   0.372509879584   
      0.373370388244   0.374075425378   0.374624353416   0.375016728903   0.375252262443   
      0.378448923636   0.378371508164   0.378139308136   0.37775246778   0.377211244593   
      0.376516035739   0.375667416435   0.374666191619   0.373513462444   0.372210709136   
      0.370759891614   0.369163568747   0.367425036257   0.365548481922   0.363539154873   
      0.361403543468   0.359149553463   0.356786675406   0.354326127496   0.351780958267   
      0.349166092814   0.346498307437   0.343796120944   0.341079596421   0.33837005475   
      0.335689709718   0.333061242959   0.330507343993   0.328050244912   0.325711280062   
      0.323510498169   0.321466348129   0.319595451331   0.317912464007   0.316430024259   
      0.315158771131   0.31410741798   0.313282859889   0.312690294567   0.31233333787   
      0.312214118183   0.31233333787   0.312690294567   0.313282859889   0.31410741798   
      0.315158771131   0.316430024259   0.317912464007   0.319595451331   0.321466348129   
      0.323510498169   0.325711280062   0.328050244912   0.330507343993   0.333061242959   
      0.335689709718   0.33837005475   0.341079596421   0.343796120944   0.346498307437   
      0.349166092814   0.351780958267   0.354326127496   0.356786675406   0.359149553463   
      0.361403543468   0.363539154873   0.365548481922   0.367425036257   0.369163568747   
      0.370759891614   0.372210709136   0.373513462444   0.374666191619   0.375667416435   
      0.376516035739   0.377211244593   0.37775246778   0.378139308136   0.378371508164   
      0.384838609767   0.384763613948   0.38453866101   0.384163859161   0.383639404428   
      0.382965604879   0.382142915909   0.381171987855   0.380053727479   0.378789374893   
      0.377380597451   0.375829601709   0.374139263863   0.372313277911   0.370356319168   
      0.368274218638   0.366074141273   0.363764758391   0.361356401873   0.358861185648   
      0.35629307881   0.353667915175   0.351003326395   0.348318590272   0.345634392264   
      0.342972505945   0.340355406199   0.337805836167   0.335346354101   0.332998888429   
      0.330784328143   0.328722171122   0.326830246115   0.325124515788   0.32361895985   
      0.322325529865   0.321254161766   0.320412828717   0.319807615832   0.319442799149   
      0.319320913699   0.319442799149   0.319807615832   0.320412828717   0.321254161766   
      0.322325529865   0.32361895985   0.325124515788   0.326830246115   0.328722171122   
      0.330784328143   0.332998888429   0.335346354101   0.337805836167   0.340355406199   
      0.342972505945   0.345634392264   0.348318590272   0.351003326395   0.353667915175   
      0.35629307881   0.358861185648   0.361356401873   0.363764758391   0.366074141273   
      0.368274218638   0.370356319168   0.372313277911   0.374139263863   0.375829601709   
      0.377380597451   0.378789374893   0.380053727479   0.381171987855   0.382142915909   
      0.382965604879   0.383639404428   0.384163859161   0.38453866101   0.384763613948   
      0.394728630068   0.394657736702   0.394445074577   0.394090701678   0.393594728411   
      0.392957338894   0.392178822051   0.391259613728   0.390200351294   0.389001942348   
      0.387665649131   0.386193190003   0.384586858844   0.382849662316   0.380985473642   
      0.378999199737   0.376896956385   0.374686243623   0.37237611093   0.369977299501   
      0.367502347259   0.364965641799   0.362383407598   0.359773616786   0.357155817688   
      0.354550881685   0.351980676184   0.349467678555   0.347034551753   0.344703706018   
      0.342496871949   0.340434708144   0.33853646197   0.3368196955   0.335300081403   
      0.333991266522   0.332904794995   0.332050078578   0.331434399641   0.331062932095   
      0.33093876695   0.331062932095   0.331434399641   0.332050078578   0.332904794995   
      0.333991266522   0.335300081403   0.3368196955   0.33853646197   0.340434708144   
      0.342496871949   0.344703706018   0.347034551753   0.349467678555   0.351980676184   
      0.354550881685   0.357155817688   0.359773616786   0.362383407598   0.364965641799   
      0.367502347259   0.369977299501   0.37237611093   0.374686243623   0.376896956385   
      0.378999199737   0.380985473642   0.382849662316   0.384586858844   0.386193190003   
      0.387665649131   0.389001942348   0.390200351294   0.391259613728   0.392178822051   
      0.392957338894   0.393594728411   0.394090701678   0.394445074577   0.394657736702   
      0.408309828155   0.408245208022   0.408051346725   0.407728244968   0.407275915411   
      0.406694400498   0.405983798554   0.405144299298   0.404176230129   0.403080114759   
      0.401856745826   0.400507273026   0.399033307999   0.397437046578   0.395721408032   
      0.393890189566   0.391948232537   0.389901594717   0.387757720561   0.385525599122   
      0.383215897279   0.380841054715   0.37841532701   0.375954764665   0.373477118884   
      0.371001669628   0.368548977212   0.366140565071   0.363798547282   0.361545219251   
      0.359402632808   0.357392177451   0.355534187582   0.353847591662   0.352349613883   
      0.351055533198   0.349978499004   0.349129398276   0.348516765905   0.348146728566   
      0.348022972667   0.348146728566   0.348516765905   0.349129398276   0.349978499004   
      0.351055533198   0.352349613883   0.353847591662   0.355534187582   0.357392177451   
      0.359402632808   0.361545219251   0.363798547282   0.366140565071   0.368548977212   
      0.371001669628   0.373477118884   0.375954764665   0.37841532701   0.380841054715   
      0.383215897279   0.385525599122   0.387757720561   0.389901594717   0.391948232537   
      0.393890189566   0.395721408032   0.397437046578   0.399033307999   0.400507273026   
      0.401856745826   0.403080114759   0.404176230129   0.405144299298   0.405983798554   
      0.406694400498   0.407275915411   0.407728244968   0.408051346725   0.408245208022   
      0.425490500408   0.425434560928   0.425266724956   0.424986942534   0.424595139363   