<?xml version="1.0"?>
<VTKFile type="ImageData" version="0.1" byte_order="LittleEndian">
  <ImageData WholeExtent="0 79 0 19 0 19" Origin="0 0 0" Spacing="1 1 1">
  <Piece Extent="0 79 0 19 0 19">
    <PointData Scalars="density">
       <DataArray type="Float32" Name="bluedensity" NumberOfComponents="1" format="ascii">
      0   0   0   0   0   
      0   0   0   0   0   
      0   0   0   0   0   
      0   0   0   0   0   
      0   0   0   0   0   
      0   0   0   0   0   
      0   0   0   0   0   
      0   0   0   0   0   
      0   0   0   0   0   
      0   0   0   0   0   
      0   0   0   0   0   
      0   0   0   0   0   
      0   0   0   0   0   
      0   0   0   0   0   
      0   0   0   0   0   
      0   0   0   0   0   
      0   0   0   0   0   
      0   0   0   0   0   
      0   0   0   0   0   
      0   0   0   0   0   
      0   0   0   0   0   
      0   0   0   0   0   
      0   0   0   0   0   
      0   0   0   0   0   
      0   0   0   0   0   
      0   0   0   0   0   
      0   0   0   0   0   
      0   0   0   0   0   
      0   0   0   0   0   
      0   0   0   0   0   
      0   0   0   0   0   
      0   0   0   0   0   
      0   0   0   0   0   
      0   0   0   0   0   
      0   0   0   0   0   
      0   0   0   0   0   
      0   0   0   0   0   
      0   0   0   0   0   
      0   0   0   0   0   
      0   0   0   0   0   
      0   0   0   0   0   
      0   0   0   0   0   
      0   0   0   0   0   
      0   0   0   0   0   
      0   0   0   0   0   
      0   0   0   0   0   
      0   0   0   0   0   
      0   0   0   0   0   
      0   0   0   0   0   
      0   0   0   0   0   
      0   0   0   0   0   
      0   0   0   0   0   
      0   0   0   0   0   
      0   0   0   0   0   
      0   0   0   0   0   
      0   0   0   0   0   
      0   0   0   0   0   
      0   0   0   0   0   
      0   0   0   0   0   
      0   0   0   0   0   
      0   0   0   0   0   
      0   0   0   0   0   
      0   0   0   0   0   
      0   0   0   0   0   
      0   0   0   0   0   
      0   0   0   0   0   
      0   0   0   0   0   
      0   0   0   0   0   
      0   0   0   0   0   
      0   0   0   0   0   
      0   0   0   0   0   
      0   0   0   0   0   
      0   0   0   0   0   
      0   0   0   0   0   
      0   0   0   0   0   
      0   0   0   0   0   
      0   0   0   0   0   
      0   0   0   0   0   
      0   0   0   0   0   
      0   0   0   0   0   
      0   0   0   0   0   
      0   0   0   0   0   
      0   0   0   0   0   
      0   0   0   0   0   
      0   0   0   0   0   
      0   0   0   0   0   
      0   0   0   0   0   
      0   0   0   0   0   
      0   0   0   0   0   
      0   0   0   0   0   
      0   0   0   0   0   
      0   0   0   0   0   
      0   0   0   0   0   
      0   0   0   0   0   
      0   0   0   0   0   
      0   0   0   0   0   
      0   0   0   0   0   
      0   0   0   0   0   
      0   0   0   0   0   
      0   0   0   0   0   
      0   0   0   0   0   
      0   0   0   0   0   
      0   0   0   0   0   
      0   0   0   0   0   
      0   0   0   0   0   
      0   0   0   0   0   
      0   0   0   0   0   
      0   0   0   0   0   
      0   0   0   0   0   
      0   0   0   0   0   
      0   0   0   0   0   
      0   0   0   0   0   
      0   0   0   0   0   
      0   0   0   0   0   
      0   0   0   0   0   
      0   0   0   0   0   
      0   0   0   0   0   
      0   0   0   0   0   
      0   0   0   0   0   
      0   0   0   0   0   
      0   0   0   0   0   
      0   0   0   0   0   
      0   0   0   0   0   
      0   0   0   0   0   
      0   0   0   0   0   
      0   0   0   0   0   
      0   0   0   0   0   
      0   0   0   0   0   
      0   0   0   0   0   
      0   0   0   0   0   
      0   0   0   0   0   
      0   0   0   0   0   
      0   0   0   0   0   
      0   0   0   0   0   
      0   0   0   0   0   
      0   0   0   0   0   
      0   0   0   0   0   
      0   0   0   0   0   
      0   0   0   0   0   
      0   0   0   0   0   
      0   0   0   0   0   
      0   0   0   0   0   
      0   0   0   0   0   
      0   0   0   0   0   
      0   0   0   0   0   
      0   0   0   0   0   
      0   0   0   0   0   
      0   0   0   0   0   
      0   0   0   0   0   
      0   0   0   0   0   
      0   0   0   0   0   
      0   0   0   0   0   
      0   0   0   0   0   
      0   0   0   0   0   
      0   0   0   0   0   
      0   0   0   0   0   
      0   0   0   0   0   
      0   0   0   0   0   
      0   0   0   0   0   
      0   0   0   0   0   
      0   0   0   0   0   
      0   0   0   0   0   
      0   0   0   0   0   
      0   0   0   0   0   
      0   0   0   0   0   
      0   0   0   0   0   
      0   0   0   0   0   
      0   0   0   0   0   
      0   0   0   0   0   
      0   0   0   0   0   
      0   0   0   0   0   
      0   0   0   0   0   
      0   0   0   0   0   
      0   0   0   0   0   
      0   0   0   0   0   
      0   0   0   0   0   
      0   0   0   0   0   
      0   0   0   0   0   
      0   0   0   0   0   
      0   0   0   0   0   
      0   0   0   0   0   
      0   0   0   0   0   
      0   0   0   0   0   
      0   0   0   0   0   
      0   0   0   0   0   
      0   0   0   0   0   
      0   0   0   0   0   
      0   0   0   0   0   
      0   0   0   0   0   
      0   0   0   0   0   
      0   0   0   0   0   
      0   0   0   0   0   
      0   0   0   0   0   
      0   0   0   0   0   
      0   0   0   0   0   
      0   0   0   0   0   
      0   0   0   0   0   
      0   0   0   0   0   
      0   0   0   0   0   
      0   0   0   0   0   
      0   0   0   0   0   
      0   0   0   0   0   
      0   0   0   0   0   
      0   0   0   0   0   
      0   0   0   0   0   
      0   0   0   0   0   
      0   0   0   0   0   
      0   0   0   0   0   
      0   0   0   0   0   
      0   0   0   0   0   
      0   0   0   0   0   
      0   0   0   0   0   
      0   0   0   0   0   
      0   0   0   0   0   
      0   0   0   0   0   
      0   0   0   0   0   
      0   0   0   0   0   
      0   0   0   0   0   
      0   0   0   0   0   
      0   0   0   0   0   
      0   0   0   0   0   
      0   0   0   0   0   
      0   0   0   0   0   
      0   0   0   0   0   
      0   0   0   0   0   
      0   0   0   0   0   
      0   0   0   0   0   
      0   0   0   0   0   
      0   0   0   0   0   
      0   0   0   0   0   
      0   0   0   0   0   
      0   0   0   0   0   
      0   0   0   0   0   
      0   0   0   0   0   
      0   0   0   0   0   
      0   0   0   0   0   
      0   0   0   0   0   
      0   0   0   0   0   
      0   0   0   0   0   
      0   0   0   0   0   
      0   0   0   0   0   
      0   0   0   0   0   
      0   0   0   0   0   
      0   0   0   0   0   
      0   0   0   0   0   
      0   0   0   0   0   
      0   0   0   0   0   
      0   0   0   0   0   
      0   0   0   0   0   
      0   0   0   0   0   
      0   0   0   0   0   
      0   0   0   0   0   
      0   0   0   0   0   
      0   0   0   0   0   
      0   0   0   0   0   
      0   0   0   0   0   
      0   0   0   0   0   
      0   0   0   0   0   
      0   0   0   0   0   
      0   0   0   0   0   
      0   0   0   0   0   
      0   0   0   0   0   
      0   0   0   0   0   
      0   0   0   0   0   
      0   0   0   0   0   
      0   0   0   0   0   
      0   0   0   0   0   
      0   0   0   0   0   
      0   0   0   0   0   
      0   0   0   0   0   
      0   0   0   0   0   
      0   0   0   0   0   
      0   0   0   0   0   
      0   0   0   0   0   
      0   0   0   0   0   
      0   0   0   0   0   
      0   0   0   0   0   
      0   0   0   0   0   
      0   0   0   0   0   
      0   0   0   0   0   
      0   0   0   0   0   
      0   0   0   0   0   
      0   0   0   0   0   
      0   0   0   0   0   
      0   0   0   0   0   
      0   0   0   0   0   
      0   0   0   0   0   
      0   0   0   0   0   
      0   0   0   0   0   
      0   0   0   0   0   
      0   0   0   0   0   
      0   0   0   0   0   
      0   0   0   0   0   
      0   0   0   0   0   
      0   0   0   0   0   
      0   0   0   0   0   
      0   0   0   0   0   
      0   0   0   0   0   
      0   0   0   0   0   
      0   0   0   0   0   
      0   0   0   0   0   
      0   0   0   0   0   
      0   0   0   0   0   
      0   0   0   0   0   
      0   0   0   0   0   
      0   0   0   0   0   
      0   0   0   0   0   
      0   0   0   0   0   
      0   0   0   0   0   
      0   0   0   0   0   
      0   0   0   0   0   
      0   0   0   0   0   
      0   0   0   0   0   
      0   0   0   0   0   
      0   0   0   0   0   
      0   0   0   0   0   
      0   0   0   0   0   
      0   0   0   0   0   
      0   0   0   0   0   
      0   0   0   0   0   
      0   0   0   0   0   
      0   0   0   0   0   
      0   0   0   0   0   
      0   0   0   0   0   
      0   0   0   0   0   
      0   0   0   0   0   
      0   0   0   0   0   
      0   0   0   0   0   
      0   0   0   0   0   
      0   0   0   0   0   
      0   0   0   0   0   
      0   0   0   0   0   
      0   0   0   0   0   
      0   0   0   0   0   
      0   0   0   0   0   
      0   0   0   0   0   
      0.571632470619   0.571625082499   0.571602948869   0.571566162019   0.571514876093   
      0.571449307564   0.57136973587   0.571276504183   0.571170020278   0.571050757444   
      0.570919255387   0.570776121072   0.570622029411   0.570457723725   0.570284015897   
      0.570101786103   0.569911982041   0.569715617533   0.569513770411   0.569307579581   
      0.569098241174   0.56888700369   0.568675162085   0.568464050742   0.5682550353   
      0.568049503355   0.56784885407   0.567654486761   0.567467788569   0.567290121373   
      0.567122808119   0.566967118781   0.566824256201   0.566695342082   0.5665814034   
      0.566483359543   0.56640201046   0.566338026086   0.566291937307   0.566264128693   
      0.566254833154   0.566264128693   0.566291937307   0.566338026086   0.56640201046   
      0.566483359543   0.5665814034   0.566695342082   0.566824256201   0.566967118781   
      0.567122808119   0.567290121373   0.567467788569   0.567654486761   0.56784885407   
      0.568049503355   0.5682550353   0.568464050742   0.568675162085   0.56888700369   
      0.569098241174   0.569307579581   0.569513770411   0.569715617533   0.569911982041   
      0.570101786103   0.570284015897   0.570457723725   0.570622029411   0.570776121072   
      0.570919255387   0.571050757444   0.571170020278   0.571276504183   0.57136973587   
      0.571449307564   0.571514876093   0.571566162019   0.571602948869   0.571625082499   
      0.459113240892   0.459102988688   0.459072274696   0.45902122693   0.45895005922   
      0.458859071906   0.458748652767   0.458619278139   0.45847151417   0.458306018148   
      0.458123539807   0.457924922533   0.457711104354   0.457483118598   0.457242094096   
      0.456989254777   0.456725918543   0.456453495239   0.456173483616   0.455887467116   
      0.455597108369   0.455304142294   0.455010367705   0.454717637387   0.454427846587   
      0.454142919979   0.453864797128   0.453595416593   0.453336698807   0.453090527965   
      0.452858733156   0.452643069054   0.452445196496   0.452266663315   0.452108885801   
      0.451973131193   0.451860501569   0.45177191951   0.451708115865   0.451669619913   
      0.451656752154   0.451669619913   0.451708115865   0.45177191951   0.451860501569   
      0.451973131193   0.452108885801   0.452266663315   0.452445196496   0.452643069054   
      0.452858733156   0.453090527965   0.453336698807   0.453595416593   0.453864797128   
      0.454142919979   0.454427846587   0.454717637387   0.455010367705   0.455304142294   
      0.455597108369   0.455887467116   0.456173483616   0.456453495239   0.456725918543   
      0.456989254777   0.457242094096   0.457483118598   0.457711104354   0.457924922533   
      0.458123539807   0.458306018148   0.45847151417   0.458619278139   0.458748652767   
      0.458859071906   0.45895005922   0.45902122693   0.459072274696   0.459102988688   
      0.433497112763   0.433483892758   0.433444288893   0.433378469787   0.433286717026   
      0.433169425962   0.433027106781   0.432860385777   0.432670006754   0.432456832476   
      0.432221846048   0.431966152118   0.431690977747   0.431397672807   0.431087709744   
      0.430762682531   0.430424304635   0.43007440583   0.42971492767   0.429347917474   
      0.428975520681   0.428599971435   0.428223581345   0.427848726338   0.427477831634   
      0.427113354853   0.426757767392   0.426413534198   0.426083092178   0.425768827498   
      0.425473052111   0.425197979867   0.424945702629   0.424718166821   0.424517150856   
      0.424344243903   0.424200826429   0.424088052939   0.424006837283   0.423957840871   
      0.423941464054   0.423957840871   0.424006837283   0.424088052939   0.424200826429   
      0.424344243903   0.424517150856   0.424718166821   0.424945702629   0.425197979867   
      0.425473052111   0.425768827498   0.426083092178   0.426413534198   0.426757767392   
      0.427113354853   0.427477831634   0.427848726338   0.428223581345   0.428599971435   
      0.428975520681   0.429347917474   0.42971492767   0.43007440583   0.430424304635   
      0.430762682531   0.431087709744   0.431397672807   0.431690977747   0.431966152118   
      0.432221846048   0.432456832476   0.432670006754   0.432860385777   0.433027106781   
      0.433169425962   0.433286717026   0.433378469787   0.433444288893   0.433483892758   
      0.408130812964   0.408114685482   0.408066373585   0.407986089087   0.407874185567   
      0.407731159173   0.407557649665   0.407354441644   0.407122465864   0.406862800513   
      0.406576672345   0.406265457501   0.405930681864   0.405574020759   0.405197297818   
      0.404802482808   0.404391688215   0.403967164405   0.403531293158   0.403086579421   
      0.402635641124   0.40218119696   0.401726052043   0.401273081437   0.400825211572   
      0.400385399644   0.399956611145   0.399541795729   0.399143861696   0.398765649416   
      0.398409904073   0.398079248152   0.397776154131   0.397502917839   0.397261632988   
      0.397054167334   0.396882140947   0.396746907018   0.396649535576   0.396590800471   
      0.396571169868   0.396590800471   0.396649535576   0.396746907018   0.396882140947   
      0.397054167334   0.397261632988   0.397502917839   0.397776154131   0.398079248152   
      0.398409904073   0.398765649416   0.399143861696   0.399541795729   0.399956611145   
      0.400385399644   0.400825211572   0.401273081437   0.401726052043   0.40218119696   
      0.402635641124   0.403086579421   0.403531293158   0.403967164405   0.404391688215   
      0.404802482808   0.405197297818   0.405574020759   0.405930681864   0.406265457501   
      0.406576672345   0.406862800513   0.407122465864   0.407354441644   0.407557649665   
      0.407731159173   0.407874185567   0.407986089087   0.408066373585   0.408114685482   
      0.38825806029   0.388239791783   0.388185068691   0.388094138458   0.387967413965   
      0.387805474215   0.387609065194   0.38737910085   0.387116664063   0.386823007493   
      0.386499554162   0.386147897584   0.385769801283   0.38536719749   0.384942184814   
      0.384497024691   0.384034136385   0.383556090356   0.383065599819   0.382565510311   
      0.382058787173   0.381548500836   0.381037809882   0.380529941897   0.380028172185   
      0.379535800478   0.379056125842   0.378592420032   0.378147899611   0.377725697211   
      0.377328832323   0.376960182079   0.376622452489   0.376318150595   0.376049558036   
      0.375818706467   0.375627355281   0.375476972024   0.375368715863   0.375303424404   
      0.375281604095   0.375303424404   0.375368715863   0.375476972024   0.375627355281   
      0.375818706467   0.376049558036   0.376318150595   0.376622452489   0.376960182079   
      0.377328832323   0.377725697211   0.378147899611   0.378592420032   0.379056125842   
      0.379535800478   0.380028172185   0.380529941897   0.381037809882   0.381548500836   
      0.382058787173   0.382565510311   0.383065599819   0.383556090356   0.384034136385   
      0.384497024691   0.384942184814   0.38536719749   0.385769801283   0.386147897584   
      0.386499554162   0.386823007493   0.387116664063   0.38737910085   0.387609065194   
      0.387805474215   0.387967413965   0.388094138458   0.388185068691   0.388239791783   
      0.372778862389   0.372759179445   0.372700221949   0.37260226403   0.372465762926   
      0.372291359495   0.372079878815   0.371832330819   0.371549910824   0.371233999836   
      0.370886164457   0.370508156233   0.370101910237   0.369669542689   0.369213347412   
      0.368735790896   0.368239505791   0.367727282615   0.367202059531   0.366666910051   
      0.366125028556   0.365579713609   0.365034349022   0.364492382771   0.363957303851   
      0.36343261726   0.362921817345   0.362428359811   0.361955632727   0.361506926925   
      0.361085406201   0.36069407777   0.360335763417   0.360013071796   0.359728372316   
      0.359483771028   0.359281088902   0.359121842826   0.359007229648   0.358938113488   
      0.358915016538   0.358938113488   0.359007229648   0.359121842826   0.359281088902   
      0.359483771028   0.359728372316   0.360013071796   0.360335763417   0.36069407777   
      0.361085406201   0.361506926925   0.361955632727   0.362428359811   0.362921817345   
      0.36343261726   0.363957303851   0.364492382771   0.365034349022   0.365579713609   
      0.366125028556   0.366666910051   0.367202059531   0.367727282615   0.368239505791   
      0.368735790896   0.369213347412   0.369669542689   0.370101910237   0.370508156233   
      0.370886164457   0.371233999836   0.371549910824   0.371832330819   0.372079878815   
      0.372291359495   0.372465762926   0.37260226403   0.372700221949   0.372759179445   
      0.361679745127   0.361659228489   0.361597775984   0.361495679917   0.361353427706   
      0.361171702205   0.360951382052   0.360693541959   0.360399452812   0.360070581451   
      0.359708589955   0.35931533425   0.358892861858   0.358443408558   0.357969393776   
      0.357473414486   0.356958237429   0.356426789479   0.35588214601   0.355327517146   
      0.354766231835   0.354201719712   0.353637490809   0.35307711318   0.352524188621   
      0.351982326678   0.351455117221   0.35094610191   0.350458744895   0.349996403161   
      0.349562296932   0.349159480541   0.348790814223   0.348458937216   0.348166242579   
      0.347914854086   0.347706605525   0.34754302269   0.347425308318   0.347354330157   
      0.347330612338   0.347354330157   0.347425308318   0.34754302269   0.347706605525   
      0.347914854086   0.348166242579   0.348458937216   0.348790814223   0.349159480541   
      0.349562296932   0.349996403161   0.350458744895   0.35094610191   0.351455117221   
      0.351982326678   0.352524188621   0.35307711318   0.353637490809   0.354201719712   
      0.354766231835   0.355327517146   0.35588214601   0.356426789479   0.356958237429   
      0.357473414486   0.357969393776   0.358443408558   0.358892861858   0.35931533425   
      0.359708589955   0.360070581451   0.360399452812   0.360693541959   0.360951382052   
      0.361171702205   0.361353427706   0.361495679917   0.361597775984   0.361659228489   
      0.354594805952   0.354573847554   0.354511073494   0.354406787218   0.354261494621   
      0.354075904225   0.353850927325   0.35358767801   0.353287472935   0.352951830691   
      0.352582470617   0.352181310857   0.351750465474   0.351292240413   0.350809128111   
      0.350303800554   0.349779100602   0.349238031407   0.348683743817   0.348119521645   
      0.347548764783   0.346974970156   0.346401710568   0.345832611593   0.345271326649   
      0.344721510538   0.344186791698   0.343670743542   0.343176855216   0.342708502199   
      0.342268917139   0.341861161333   0.341488097269   0.341152362585   0.340856345833   
      0.340602164341   0.340391644477   0.340226304547   0.340107340541   0.340035614878   
      0.340011648283   0.340035614878   0.340107340541   0.340226304547   0.340391644477   
      0.340602164341   0.340856345833   0.341152362585   0.341488097269   0.341861161333   
      0.342268917139   0.342708502199   0.343176855216   0.343670743542   0.344186791698   
      0.344721510538   0.345271326649   0.345832611593   0.346401710568   0.346974970156   
      0.347548764783   0.348119521645   0.348683743817   0.349238031407   0.349779100602   
      0.350303800554   0.350809128111   0.351292240413   0.351750465474   0.352181310857   
      0.352582470617   0.352951830691   0.353287472935   0.35358767801   0.353850927325   
      0.354075904225   0.354261494621   0.354406787218   0.354511073494   0.354573847554   
      0.351163073508   0.351141928917   0.351078598036   0.350973389584   0.350826818186   
      0.350639604482   0.350412675153   0.350147162804   0.349844405554   0.349505946184   
      0.349133530694   0.348729106066   0.348294817042   0.347833001712   0.347346185721   
      0.346837074883   0.346308546036   0.345763635989   0.34520552842   0.344637538665   
      0.344063096357   0.343485725928   0.342909025064   0.342336641239   0.341772246531   
      0.341219510961   0.340682074663   0.340163519217   0.339667338524   0.339196909618   
      0.338755463807   0.338346058559   0.337971550507   0.33763456994   0.337337497127   
      0.33708244075   0.336871218733   0.336705341665   0.336585999003   0.336514048211   
      0.336490006924   0.336514048211   0.336585999003   0.336705341665   0.336871218733   
      0.33708244075   0.337337497127   0.33763456994   0.337971550507   0.338346058559   
      0.338755463807   0.339196909618   0.339667338524   0.340163519217   0.340682074663   
      0.341219510961   0.341772246531   0.342336641239   0.342909025064   0.343485725928   
      0.344063096357   0.344637538665   0.34520552842   0.345763635989   0.346308546036   
      0.346837074883   0.347346185721   0.347833001712   0.348294817042   0.348729106066   
      0.349133530694   0.349505946184   0.349844405554   0.350147162804   0.350412675153   
      0.350639604482   0.350826818186   0.350973389584   0.351078598036   0.351141928917   
      0.351163073508   0.351141928917   0.351078598036   0.350973389584   0.350826818186   
      0.350639604482   0.350412675153   0.350147162804   0.349844405554   0.349505946184   
      0.349133530694   0.348729106066   0.348294817042   0.347833001712   0.347346185721   
      0.346837074883   0.346308546036   0.345763635989   0.34520552842   0.344637538665   
      0.344063096357   0.343485725928   0.342909025064   0.342336641239   0.341772246531   
      0.341219510961   0.340682074663   0.340163519217   0.339667338524   0.339196909618   
      0.338755463807   0.338346058559   0.337971550507   0.33763456994   0.337337497127   
      0.33708244075   0.336871218733   0.336705341665   0.336585999003   0.336514048211   
      0.336490006924   0.336514048211   0.336585999003   0.336705341665   0.336871218733   
      0.33708244075   0.337337497127   0.33763456994   0.337971550507   0.338346058559   
      0.338755463807   0.339196909618   0.339667338524   0.340163519217   0.340682074663   
      0.341219510961   0.341772246531   0.342336641239   0.342909025064   0.343485725928   
      0.344063096357   0.344637538665   0.34520552842   0.345763635989   0.346308546036   
      0.346837074883   0.347346185721   0.347833001712   0.348294817042   0.348729106066   
      0.349133530694   0.349505946184   0.349844405554   0.350147162804   0.350412675153   
      0.350639604482   0.350826818186   0.350973389584   0.351078598036   0.351141928917   
      0.354594805952   0.354573847554   0.354511073494   0.354406787218   0.354261494621   
      0.354075904225   0.353850927325   0.35358767801   0.353287472935   0.352951830691   
      0.352582470617   0.352181310857   0.351750465474   0.351292240413   0.350809128111   
      0.350303800554   0.349779100602   0.349238031407   0.348683743817   0.348119521645   
      0.347548764783   0.346974970156   0.346401710568   0.345832611593   0.345271326649   
      0.344721510538   0.344186791698   0.343670743542   0.343176855216   0.342708502199   
      0.342268917139   0.341861161333   0.341488097269   0.341152362585   0.340856345833   
      0.340602164341   0.340391644477   0.340226304547   0.340107340541   0.340035614878   
      0.340011648283   0.340035614878   0.340107340541   0.340226304547   0.340391644477   
      0.340602164341   0.340856345833   0.341152362585   0.341488097269   0.341861161333   
      0.342268917139   0.342708502199   0.343176855216   0.343670743542   0.344186791698   
      0.344721510538   0.345271326649   0.345832611593   0.346401710568   0.346974970156   
      0.347548764783   0.348119521645   0.348683743817   0.349238031407   0.349779100602   
      0.350303800554   0.350809128111   0.351292240413   0.351750465474   0.352181310857   
      0.352582470617   0.352951830691   0.353287472935   0.35358767801   0.353850927325   
      0.354075904225   0.354261494621   0.354406787218   0.354511073494   0.354573847554   
      0.361679745127   0.361659228489   0.361597775984   0.361495679917   0.361353427706   
      0.361171702205   0.360951382052   0.360693541959   0.360399452812   0.360070581451   
      0.359708589955   0.35931533425   0.358892861858   0.358443408558   0.357969393776   
      0.357473414486   0.356958237429   0.356426789479   0.35588214601   0.355327517146   
      0.354766231835   0.354201719712   0.353637490809   0.35307711318   0.352524188621   
      0.351982326678   0.351455117221   0.35094610191   0.350458744895   0.349996403161   
      0.349562296932   0.349159480541   0.348790814223   0.348458937216   0.348166242579   
      0.347914854086   0.347706605525   0.34754302269   0.347425308318   0.347354330157   
      0.347330612338   0.347354330157   0.347425308318   0.34754302269   0.347706605525   
      0.347914854086   0.348166242579   0.348458937216   0.348790814223   0.349159480541   
      0.349562296932   0.349996403161   0.350458744895   0.35094610191   0.351455117221   
      0.351982326678   0.352524188621   0.35307711318   0.353637490809   0.354201719712   
      0.354766231835   0.355327517146   0.35588214601   0.356426789479   0.356958237429   
      0.357473414486   0.357969393776   0.358443408558   0.358892861858   0.35931533425   
      0.359708589955   0.360070581451   0.360399452812   0.360693541959   0.360951382052   
      0.361171702205   0.361353427706   0.361495679917   0.361597775984   0.361659228489   
      0.372778862389   0.372759179445   0.372700221949   0.37260226403   0.372465762926   
      0.372291359495   0.372079878815   0.371832330819   0.371549910824   0.371233999836   
      0.370886164457   0.370508156233   0.370101910237   0.369669542689   0.369213347412   
      0.368735790896   0.368239505791   0.367727282615   0.367202059531   0.366666910051   
      0.366125028556   0.365579713609   0.365034349022   0.364492382771   0.363957303851   
      0.36343261726   0.362921817345   0.362428359811   0.361955632727   0.361506926925   
      0.361085406201   0.36069407777   0.360335763417   0.360013071796   0.359728372316   
      0.359483771028   0.359281088902   0.359121842826   0.359007229648   0.358938113488   
      0.358915016538   0.358938113488   0.359007229648   0.359121842826   0.359281088902   
      0.359483771028   0.359728372316   0.360013071796   0.360335763417   0.36069407777   
      0.361085406201   0.361506926925   0.361955632727   0.362428359811   0.362921817345   
      0.36343261726   0.363957303851   0.364492382771   0.365034349022   0.365579713609   
      0.366125028556   0.366666910051   0.367202059531   0.367727282615   0.368239505791   
      0.368735790896   0.369213347412   0.369669542689   0.370101910237   0.370508156233   
      0.370886164457   0.371233999836   0.371549910824   0.371832330819   0.372079878815   
      0.372291359495   0.372465762926   0.37260226403   0.372700221949   0.372759179445   
      0.38825806029   0.388239791783   0.388185068691   0.388094138458   0.387967413965   
      0.387805474215   0.387609065194   0.38737910085   0.387116664063   0.386823007493   
      0.386499554162   0.386147897584   0.385769801283   0.38536719749   0.384942184814   
      0.384497024691   0.384034136385   0.383556090356   0.383065599819   0.382565510311   
      0.382058787173   0.381548500836   0.381037809882   0.380529941897   0.380028172185   
      0.379535800478   0.379056125842   0.378592420032   0.378147899611   0.377725697211   
      0.377328832323   0.376960182079   0.376622452489   0.376318150595   0.376049558036   
      0.375818706467   0.375627355281   0.375476972024   0.375368715863   0.375303424404   
      0.375281604095   0.375303424404   0.375368715863   0.375476972024   0.375627355281   
      0.375818706467   0.376049558036   0.376318150595   0.376622452489   0.376960182079   
      0.377328832323   0.377725697211   0.378147899611   0.378592420032   0.379056125842   
      0.379535800478   0.380028172185   0.380529941897   0.381037809882   0.381548500836   
      0.382058787173   0.382565510311   0.383065599819   0.383556090356   0.384034136385   
      0.384497024691   0.384942184814   0.38536719749   0.385769801283   0.386147897584   
      0.386499554162   0.386823007493   0.387116664063   0.38737910085   0.387609065194   
      0.387805474215   0.387967413965   0.388094138458   0.388185068691   0.388239791783   