<?xml version="1.0"?>
<VTKFile type="ImageData" version="0.1" byte_order="LittleEndian">
  <ImageData WholeExtent="0 79 0 19 0 19" Origin="0 0 0" Spacing="1 1 1">
  <Piece Extent="0 79 0 19 0 19">
    <PointData Scalars="density">
       <DataArray type="Float32" Name="bluedensity" NumberOfComponents="1" format="ascii">
      0   0   0   0   0   
      0   0   0   0   0   
      0   0   0   0   0   
      0   0   0   0   0   
      0   0   0   0   0   
      0   0   0   0   0   
      0   0   0   0   0   
      0   0   0   0   0   
      0   0   0   0   0   
      0   0   0   0   0   
      0   0   0   0   0   
      0   0   0   0   0   
      0   0   0   0   0   
      0   0   0   0   0   
      0   0   0   0   0   
      0   0   0   0   0   
      0   0   0   0   0   
      0   0   0   0   0   
      0   0   0   0   0   
      0   0   0   0   0   
      0   0   0   0   0   
      0   0   0   0   0   
      0   0   0   0   0   
      0   0   0   0   0   
      0   0   0   0   0   
      0   0   0   0   0   
      0   0   0   0   0   
      0   0   0   0   0   
      0   0   0   0   0   
      0   0   0   0   0   
      0   0   0   0   0   
      0   0   0   0   0   
      0   0   0   0   0   
      0   0   0   0   0   
      0   0   0   0   0   
      0   0   0   0   0   
      0   0   0   0   0   
      0   0   0   0   0   
      0   0   0   0   0   
      0   0   0   0   0   
      0   0   0   0   0   
      0   0   0   0   0   
      0   0   0   0   0   
      0   0   0   0   0   
      0   0   0   0   0   
      0   0   0   0   0   
      0   0   0   0   0   
      0   0   0   0   0   
      0   0   0   0   0   
      0   0   0   0   0   
      0   0   0   0   0   
      0   0   0   0   0   
      0   0   0   0   0   
      0   0   0   0   0   
      0   0   0   0   0   
      0   0   0   0   0   
      0   0   0   0   0   
      0   0   0   0   0   
      0   0   0   0   0   
      0   0   0   0   0   
      0   0   0   0   0   
      0   0   0   0   0   
      0   0   0   0   0   
      0   0   0   0   0   
      0   0   0   0   0   
      0   0   0   0   0   
      0   0   0   0   0   
      0   0   0   0   0   
      0   0   0   0   0   
      0   0   0   0   0   
      0   0   0   0   0   
      0   0   0   0   0   
      0   0   0   0   0   
      0   0   0   0   0   
      0   0   0   0   0   
      0   0   0   0   0   
      0   0   0   0   0   
      0   0   0   0   0   
      0   0   0   0   0   
      0   0   0   0   0   
      0   0   0   0   0   
      0   0   0   0   0   
      0   0   0   0   0   
      0   0   0   0   0   
      0   0   0   0   0   
      0   0   0   0   0   
      0   0   0   0   0   
      0   0   0   0   0   
      0   0   0   0   0   
      0   0   0   0   0   
      0   0   0   0   0   
      0   0   0   0   0   
      0   0   0   0   0   
      0   0   0   0   0   
      0   0   0   0   0   
      0   0   0   0   0   
      0   0   0   0   0   
      0   0   0   0   0   
      0   0   0   0   0   
      0   0   0   0   0   
      0   0   0   0   0   
      0   0   0   0   0   
      0   0   0   0   0   
      0   0   0   0   0   
      0   0   0   0   0   
      0   0   0   0   0   
      0   0   0   0   0   
      0   0   0   0   0   
      0   0   0   0   0   
      0   0   0   0   0   
      0   0   0   0   0   
      0   0   0   0   0   
      0   0   0   0   0   
      0   0   0   0   0   
      0   0   0   0   0   
      0   0   0   0   0   
      0   0   0   0   0   
      0   0   0   0   0   
      0   0   0   0   0   
      0   0   0   0   0   
      0   0   0   0   0   
      0   0   0   0   0   
      0   0   0   0   0   
      0   0   0   0   0   
      0   0   0   0   0   
      0   0   0   0   0   
      0   0   0   0   0   
      0   0   0   0   0   
      0   0   0   0   0   
      0   0   0   0   0   
      0   0   0   0   0   
      0   0   0   0   0   
      0   0   0   0   0   
      0   0   0   0   0   
      0   0   0   0   0   
      0   0   0   0   0   
      0   0   0   0   0   
      0   0   0   0   0   
      0   0   0   0   0   
      0   0   0   0   0   
      0   0   0   0   0   
      0   0   0   0   0   
      0   0   0   0   0   
      0   0   0   0   0   
      0   0   0   0   0   
      0   0   0   0   0   
      0   0   0   0   0   
      0   0   0   0   0   
      0   0   0   0   0   
      0   0   0   0   0   
      0   0   0   0   0   
      0   0   0   0   0   
      0   0   0   0   0   
      0   0   0   0   0   
      0   0   0   0   0   
      0   0   0   0   0   
      0   0   0   0   0   
      0   0   0   0   0   
      0   0   0   0   0   
      0   0   0   0   0   
      0   0   0   0   0   
      0   0   0   0   0   
      0   0   0   0   0   
      0   0   0   0   0   
      0   0   0   0   0   
      0   0   0   0   0   
      0   0   0   0   0   
      0   0   0   0   0   
      0   0   0   0   0   
      0   0   0   0   0   
      0   0   0   0   0   
      0   0   0   0   0   
      0   0   0   0   0   
      0   0   0   0   0   
      0   0   0   0   0   
      0   0   0   0   0   
      0   0   0   0   0   
      0   0   0   0   0   
      0   0   0   0   0   
      0   0   0   0   0   
      0   0   0   0   0   
      0   0   0   0   0   
      0   0   0   0   0   
      0   0   0   0   0   
      0   0   0   0   0   
      0   0   0   0   0   
      0   0   0   0   0   
      0   0   0   0   0   
      0   0   0   0   0   
      0   0   0   0   0   
      0   0   0   0   0   
      0   0   0   0   0   
      0   0   0   0   0   
      0   0   0   0   0   
      0   0   0   0   0   
      0   0   0   0   0   
      0   0   0   0   0   
      0   0   0   0   0   
      0   0   0   0   0   
      0   0   0   0   0   
      0   0   0   0   0   
      0   0   0   0   0   
      0   0   0   0   0   
      0   0   0   0   0   
      0   0   0   0   0   
      0   0   0   0   0   
      0   0   0   0   0   
      0   0   0   0   0   
      0   0   0   0   0   
      0   0   0   0   0   
      0   0   0   0   0   
      0   0   0   0   0   
      0   0   0   0   0   
      0   0   0   0   0   
      0   0   0   0   0   
      0   0   0   0   0   
      0   0   0   0   0   
      0   0   0   0   0   
      0   0   0   0   0   
      0   0   0   0   0   
      0   0   0   0   0   
      0   0   0   0   0   
      0   0   0   0   0   
      0   0   0   0   0   
      0   0   0   0   0   
      0   0   0   0   0   
      0   0   0   0   0   
      0   0   0   0   0   
      0   0   0   0   0   
      0   0   0   0   0   
      0   0   0   0   0   
      0   0   0   0   0   
      0   0   0   0   0   
      0   0   0   0   0   
      0   0   0   0   0   
      0   0   0   0   0   
      0   0   0   0   0   
      0   0   0   0   0   
      0   0   0   0   0   
      0   0   0   0   0   
      0   0   0   0   0   
      0   0   0   0   0   
      0   0   0   0   0   
      0   0   0   0   0   
      0   0   0   0   0   
      0   0   0   0   0   
      0   0   0   0   0   
      0   0   0   0   0   
      0   0   0   0   0   
      0   0   0   0   0   
      0   0   0   0   0   
      0   0   0   0   0   
      0   0   0   0   0   
      0   0   0   0   0   
      0   0   0   0   0   
      0   0   0   0   0   
      0   0   0   0   0   
      0   0   0   0   0   
      0   0   0   0   0   
      0   0   0   0   0   
      0   0   0   0   0   
      0   0   0   0   0   
      0   0   0   0   0   
      0   0   0   0   0   
      0   0   0   0   0   
      0   0   0   0   0   
      0   0   0   0   0   
      0   0   0   0   0   
      0   0   0   0   0   
      0   0   0   0   0   
      0   0   0   0   0   
      0   0   0   0   0   
      0   0   0   0   0   
      0   0   0   0   0   
      0   0   0   0   0   
      0   0   0   0   0   
      0   0   0   0   0   
      0   0   0   0   0   
      0   0   0   0   0   
      0   0   0   0   0   
      0   0   0   0   0   
      0   0   0   0   0   
      0   0   0   0   0   
      0   0   0   0   0   
      0   0   0   0   0   
      0   0   0   0   0   
      0   0   0   0   0   
      0   0   0   0   0   
      0   0   0   0   0   
      0   0   0   0   0   
      0   0   0   0   0   
      0   0   0   0   0   
      0   0   0   0   0   
      0   0   0   0   0   
      0   0   0   0   0   
      0   0   0   0   0   
      0   0   0   0   0   
      0   0   0   0   0   
      0   0   0   0   0   
      0   0   0   0   0   
      0   0   0   0   0   
      0   0   0   0   0   
      0   0   0   0   0   
      0   0   0   0   0   
      0   0   0   0   0   
      0   0   0   0   0   
      0   0   0   0   0   
      0   0   0   0   0   
      0   0   0   0   0   
      0   0   0   0   0   
      0   0   0   0   0   
      0   0   0   0   0   
      0   0   0   0   0   
      0   0   0   0   0   
      0   0   0   0   0   
      0   0   0   0   0   
      0   0   0   0   0   
      0   0   0   0   0   
      0   0   0   0   0   
      0   0   0   0   0   
      0   0   0   0   0   
      0   0   0   0   0   
      0   0   0   0   0   
      0   0   0   0   0   
      0   0   0   0   0   
      0   0   0   0   0   
      0   0   0   0   0   
      0   0   0   0   0   
      0   0   0   0   0   
      0   0   0   0   0   
      0   0   0   0   0   
      0   0   0   0   0   
      0   0   0   0   0   
      0   0   0   0   0   
      0   0   0   0   0   
      0   0   0   0   0   
      0.574897531329   0.574881766882   0.574834502284   0.574755824445   0.574645880488   
      0.57450488117   0.574333105721   0.574130908097   0.573898724709   0.573637083616   
      0.573346615196   0.57302806426   0.57268230353   0.572310348352   0.571913372435   
      0.57149272432   0.571049944166   0.570586780363   0.57010520529   0.569607429504   
      0.569095913438   0.56857337568   0.568042796773   0.567507417516   0.566970730743   
      0.566436465695   0.565908564246   0.565391148524   0.564888479747   0.564404908482   
      0.563944816951   0.563512554397   0.563112366973   0.56274832396   0.562424242463   
      0.562143612929   0.561909527976   0.561724617009   0.561590988996   0.56151018551   
      0.561483145842   0.56151018551   0.561590988996   0.561724617009   0.561909527976   
      0.562143612929   0.562424242463   0.56274832396   0.563112366973   0.563512554397   
      0.563944816951   0.564404908482   0.564888479747   0.565391148524   0.565908564246   
      0.566436465695   0.566970730743   0.567507417516   0.568042796773   0.56857337568   
      0.569095913438   0.569607429504   0.57010520529   0.570586780363   0.571049944166   
      0.57149272432   0.571913372435   0.572310348352   0.57268230353   0.57302806426   
      0.573346615196   0.573637083616   0.573898724709   0.574130908097   0.574333105721   
      0.57450488117   0.574645880488   0.574755824445   0.574834502284   0.574881766882   
      0.463737384293   0.463715542585   0.463650055784   0.463541039891   0.463388691647   
      0.463193293679   0.462955221729   0.462674954014   0.462353082729   0.461990327701   
      0.461587552161   0.461145780566   0.46066621831   0.460150273102   0.459599577645   
      0.459016013158   0.458401733092   0.457759186259   0.457091138418   0.456400691199   
      0.455691297124   0.454966769354   0.454231284781   0.453489379076   0.452745932403   
      0.452006144717   0.451275499847   0.450559717909   0.449864696075   0.449196438222   
      0.448560974499   0.4479642724   0.447412141431   0.446910133863   0.446463444421   
      0.446076811962   0.445754426251   0.445499842931   0.445315909527   0.445204705039   
      0.445167495208   0.445204705039   0.445315909527   0.445499842931   0.445754426251   
      0.446076811962   0.446463444421   0.446910133863   0.447412141431   0.4479642724   
      0.448560974499   0.449196438222   0.449864696075   0.450559717909   0.451275499847   
      0.452006144717   0.452745932403   0.453489379076   0.454231284781   0.454966769354   
      0.455691297124   0.456400691199   0.457091138418   0.457759186259   0.458401733092   
      0.459016013158   0.459599577645   0.460150273102   0.46066621831   0.461145780566   
      0.461587552161   0.461990327701   0.462353082729   0.462674954014   0.462955221729   
      0.463193293679   0.463388691647   0.463541039891   0.463650055784   0.463715542585   
      0.439544999971   0.439516674492   0.439431751698   0.439290393881   0.439092876068   
      0.438839592849   0.438531067959   0.438167966629   0.437751110695   0.437281496431   
      0.436760315004   0.4361889754   0.435569129531   0.434902699164   0.434191904102   
      0.433439290933   0.43264776143   0.431820599528   0.430961495586   0.430074566494   
      0.429164370055   0.428235911985   0.427294643909   0.426346450807   0.42539762657   
      0.424454836665   0.42352506727   0.422615560794   0.421733738214   0.420887109288   
      0.420083172285   0.419329305398   0.418632652501   0.418000006268   0.417437691877   
      0.416951454644   0.416546354864   0.416226672964   0.415995827769   0.41585631031   
      0.415809635096   0.41585631031   0.415995827769   0.416226672964   0.416546354864   
      0.416951454644   0.417437691877   0.418000006268   0.418632652501   0.419329305398   
      0.420083172285   0.420887109288   0.421733738214   0.422615560794   0.42352506727   
      0.424454836665   0.42539762657   0.426346450807   0.427294643909   0.428235911985   
      0.429164370055   0.430074566494   0.430961495586   0.431820599528   0.43264776143   
      0.433439290933   0.434191904102   0.434902699164   0.435569129531   0.4361889754   
      0.436760315004   0.437281496431   0.437751110695   0.438167966629   0.438531067959   
      0.438839592849   0.439092876068   0.439290393881   0.439431751698   0.439516674492   
      0.415600251677   0.4155653953   0.415460899861   0.415286988134   0.415044037016   
      0.414732585964   0.41435334877   0.413907228697   0.413395336871   0.412819013853   
      0.412179854169   0.411479733523   0.410720838254   0.409905696444   0.409037209911   
      0.408118686102   0.407153868686   0.406146965455   0.405102671929   0.404026188936   
      0.402923232344   0.401800033133   0.400663326093   0.399520325673   0.398378687834   
      0.397246457219   0.39613199951   0.395043919441   0.393990965587   0.392981923674   
      0.392025500694   0.391130202594   0.390304208624   0.389555245608   0.388890465433   
      0.388316328938   0.387838499155   0.387461746527   0.387189868341   0.38702562421   
      0.386970689002   0.38702562421   0.387189868341   0.387461746527   0.387838499155   
      0.388316328938   0.388890465433   0.389555245608   0.390304208624   0.391130202594   
      0.392025500694   0.392981923674   0.393990965587   0.395043919441   0.39613199951   
      0.397246457219   0.398378687834   0.399520325673   0.400663326093   0.401800033133   
      0.402923232344   0.404026188936   0.405102671929   0.406146965455   0.407153868686   
      0.408118686102   0.409037209911   0.409905696444   0.410720838254   0.411479733523   
      0.412179854169   0.412819013853   0.413395336871   0.413907228697   0.41435334877   
      0.414732585964   0.415044037016   0.415286988134   0.415460899861   0.4155653953   
      0.396805810663   0.396765946595   0.396646448403   0.396447600038   0.396169881146   
      0.395813976636   0.395380790023   0.394871460474   0.394287383417   0.393630234516   
      0.392901996704   0.392104989809   0.391241902197   0.3903158236   0.389330278145   
      0.388289256335   0.38719724452   0.386059250221   0.384880821468   0.383668058259   
      0.382427614222   0.381166686701   0.379892993677   0.378614736351   0.377340546671   
      0.376079419682   0.374840631232   0.373633642246   0.372467991407   0.371353178679   
      0.370298542509   0.369313133842   0.368405590182   0.367584012864   0.366855850466   
      0.366227790962   0.365705664796   0.365294360608   0.364997754912   0.364818656664   
      0.364758767304   0.364818656664   0.364997754912   0.365294360608   0.365705664796   
      0.366227790962   0.366855850466   0.367584012864   0.368405590182   0.369313133842   
      0.370298542509   0.371353178679   0.372467991407   0.373633642246   0.374840631232   
      0.376079419682   0.377340546671   0.378614736351   0.379892993677   0.381166686701   
      0.382427614222   0.383668058259   0.384880821468   0.386059250221   0.38719724452   
      0.388289256335   0.389330278145   0.3903158236   0.391241902197   0.392104989809   
      0.392901996704   0.393630234516   0.394287383417   0.394871460474   0.395380790023   
      0.395813976636   0.396169881146   0.396447600038   0.396646448403   0.396765946595   
      0.38206439988   0.382021065518   0.381891174316   0.381675064009   0.381373304418   
      0.380986707784   0.380516343148   0.379963554626   0.379329983378   0.378617592976   
      0.37782869773   0.376965993375   0.376032589357   0.375032041694   0.373968385218   
      0.372846163722   0.371670456361   0.370446898452   0.369181694729   0.367881623081   
      0.366554026894   0.365206794364   0.363848323483   0.362487471937   0.36113349174   
      0.359795949124   0.358484630939   0.357209439457   0.355980278124   0.354806931187   
      0.353698940456   0.35266548246   0.351715249143   0.350856334933   0.350096132528   
      0.349441239225   0.348897375067   0.348469313545   0.348160825183   0.347974633989   
      0.347912386618   0.347974633989   0.348160825183   0.348469313545   0.348897375067   
      0.349441239225   0.350096132528   0.350856334933   0.351715249143   0.35266548246   
      0.353698940456   0.354806931187   0.355980278124   0.357209439457   0.358484630939   
      0.359795949124   0.36113349174   0.362487471937   0.363848323483   0.365206794364   
      0.366554026894   0.367881623081   0.369181694729   0.370446898452   0.371670456361   
      0.372846163722   0.373968385218   0.375032041694   0.376032589357   0.376965993375   
      0.37782869773   0.378617592976   0.379329983378   0.379963554626   0.380516343148   
      0.380986707784   0.381373304418   0.381675064009   0.381891174316   0.382021065518   
      0.371419563689   0.37137405873   0.371237669664   0.371010776123   0.370694018094   
      0.370288306766   0.369794839542   0.369215119065   0.368550975955   0.367804594883   
      0.366978543424   0.36607580298   0.365099800827   0.364054442134   0.362944140561   
      0.36177384581   0.360549066307   0.359275885067   0.35796096671   0.356611553694   
      0.35523544997   0.353840990648   0.352436996704   0.351032714398   0.349637739745   
      0.348261929174   0.346915298201   0.345607910633   0.344349761311   0.343150655724   
      0.342020089902   0.340967133882   0.340000321648   0.339127549947   0.338355987729   
      0.337691997298   0.337141067616   0.336707759643   0.336395663218   0.336207364713   
      0.336144424672   0.336207364713   0.336395663218   0.336707759643   0.337141067616   
      0.337691997298   0.338355987729   0.339127549947   0.340000321648   0.340967133882   
      0.342020089902   0.343150655724   0.344349761311   0.345607910633   0.346915298201   
      0.348261929174   0.349637739745   0.351032714398   0.352436996704   0.353840990648   
      0.35523544997   0.356611553694   0.35796096671   0.359275885067   0.360549066307   
      0.36177384581   0.362944140561   0.364054442134   0.365099800827   0.36607580298   
      0.366978543424   0.367804594883   0.368550975955   0.369215119065   0.369794839542   
      0.370288306766   0.370694018094   0.371010776123   0.371237669664   0.37137405873   
      0.3645871058   0.364540373546   0.364400312058   0.364167329419   0.363842113248   
      0.363425641839   0.362919199555   0.362324396265   0.361643190476   0.360877915719   
      0.360031309546   0.359106544311   0.358107258718   0.357037588828   0.355902197033   
      0.35470629725   0.353455674424   0.352156696325   0.350816315591   0.349442060124   
      0.348042010174   0.346624760867   0.345199369518   0.343775287709   0.342362278923   
      0.340970323262   0.339609511549   0.338289931695   0.337021550673   0.335814095638   
      0.334676937663   0.333618981309   0.332648562698   0.331773358125   0.331000304479   
      0.330335531999   0.329784309212   0.329350999336   0.329039027079   0.328850854576   
      0.32878796525   0.328850854576   0.329039027079   0.329350999336   0.329784309212   
      0.330335531999   0.331000304479   0.331773358125   0.332648562698   0.333618981309   
      0.334676937663   0.335814095638   0.337021550673   0.338289931695   0.339609511549   
      0.340970323262   0.342362278923   0.343775287709   0.345199369518   0.346624760867   
      0.348042010174   0.349442060124   0.350816315591   0.352156696325   0.353455674424   
      0.35470629725   0.355902197033   0.357037588828   0.358107258718   0.359106544311   
      0.360031309546   0.360877915719   0.361643190476   0.362324396265   0.362919199555   
      0.363425641839   0.363842113248   0.364167329419   0.364400312058   0.364540373546   
      0.361266220236   0.361218941283   0.361077244483   0.360841552295   0.360512576404   
      0.360091328991   0.359579138303   0.358977668268   0.358288941793   0.357515367251   
      0.356659767478   0.355725410404   0.354716040225   0.353635907769   0.352489798485   
      0.351283056264   0.350021601129   0.348711938755   0.34736115978   0.345976927032   
      0.344567449095   0.343141439079   0.341708058082   0.340276843544   0.338857623462   
      0.33746041826   0.336095332817   0.334772441729   0.333501671316   0.332292681964   
      0.331154754334   0.330096682536   0.329126676853   0.328252277791   0.327480282499   
      0.326816683786   0.326266621251   0.325834343541   0.325523180346   0.32533552267   
      0.325272809919   0.32533552267   0.325523180346   0.325834343541   0.326266621251   
      0.326816683786   0.327480282499   0.328252277791   0.329126676853   0.330096682536   
      0.331154754334   0.332292681964   0.333501671316   0.334772441729   0.336095332817   
      0.33746041826   0.338857623462   0.340276843544   0.341708058082   0.343141439079   
      0.344567449095   0.345976927032   0.34736115978   0.348711938755   0.350021601129   
      0.351283056264   0.352489798485   0.353635907769   0.354716040225   0.355725410404   
      0.356659767478   0.357515367251   0.358288941793   0.358977668268   0.359579138303   
      0.360091328991   0.360512576404   0.360841552295   0.361077244483   0.361218941283   
      0.361266220236   0.361218941283   0.361077244483   0.360841552295   0.360512576404   
      0.360091328991   0.359579138303   0.358977668268   0.358288941793   0.357515367251   
      0.356659767478   0.355725410404   0.354716040225   0.353635907769   0.352489798485   
      0.351283056264   0.350021601129   0.348711938755   0.34736115978   0.345976927032   
      0.344567449095   0.343141439079   0.341708058082   0.340276843544   0.338857623462   
      0.33746041826   0.336095332817   0.334772441729   0.333501671316   0.332292681964   
      0.331154754334   0.330096682536   0.329126676853   0.328252277791   0.327480282499   
      0.326816683786   0.326266621251   0.325834343541   0.325523180346   0.32533552267   
      0.325272809919   0.32533552267   0.325523180346   0.325834343541   0.326266621251   
      0.326816683786   0.327480282499   0.328252277791   0.329126676853   0.330096682536   
      0.331154754334   0.332292681964   0.333501671316   0.334772441729   0.336095332817   
      0.33746041826   0.338857623462   0.340276843544   0.341708058082   0.343141439079   
      0.344567449095   0.345976927032   0.34736115978   0.348711938755   0.350021601129   
      0.351283056264   0.352489798485   0.353635907769   0.354716040225   0.355725410404   
      0.356659767478   0.357515367251   0.358288941793   0.358977668268   0.359579138303   
      0.360091328991   0.360512576404   0.360841552295   0.361077244483   0.361218941283   
      0.3645871058   0.364540373546   0.364400312058   0.364167329419   0.363842113248   
      0.363425641839   0.362919199555   0.362324396265   0.361643190476   0.360877915719   
      0.360031309546   0.359106544311   0.358107258718   0.357037588828   0.355902197033   
      0.35470629725   0.353455674424   0.352156696325   0.350816315591   0.349442060124   
      0.348042010174   0.346624760867   0.345199369518   0.343775287709   0.342362278923   
      0.340970323262   0.339609511549   0.338289931695   0.337021550673   0.335814095638   
      0.334676937663   0.333618981309   0.332648562698   0.331773358125   0.331000304479   
      0.330335531999   0.329784309212   0.329350999336   0.329039027079   0.328850854576   
      0.32878796525   0.328850854576   0.329039027079   0.329350999336   0.329784309212   
      0.330335531999   0.331000304479   0.331773358125   0.332648562698   0.333618981309   
      0.334676937663   0.335814095638   0.337021550673   0.338289931695   0.339609511549   
      0.340970323262   0.342362278923   0.343775287709   0.345199369518   0.346624760867   
      0.348042010174   0.349442060124   0.350816315591   0.352156696325   0.353455674424   
      0.35470629725   0.355902197033   0.357037588828   0.358107258718   0.359106544311   
      0.360031309546   0.360877915719   0.361643190476   0.362324396265   0.362919199555   
      0.363425641839   0.363842113248   0.364167329419   0.364400312058   0.364540373546   
      0.371419563689   0.37137405873   0.371237669664   0.371010776123   0.370694018094   
      0.370288306766   0.369794839542   0.369215119065   0.368550975955   0.367804594883   
      0.366978543424   0.36607580298   0.365099800827   0.364054442134   0.362944140561   
      0.36177384581   0.360549066307   0.359275885067   0.35796096671   0.356611553694   
      0.35523544997   0.353840990648   0.352436996704   0.351032714398   0.349637739745   
      0.348261929174   0.346915298201   0.345607910633   0.344349761311   0.343150655724   
      0.342020089902   0.340967133882   0.340000321648   0.339127549947   0.338355987729   
      0.337691997298   0.337141067616   0.336707759643   0.336395663218   0.336207364713   
      0.336144424672   0.336207364713   0.336395663218   0.336707759643   0.337141067616   
      0.337691997298   0.338355987729   0.339127549947   0.340000321648   0.340967133882   
      0.342020089902   0.343150655724   0.344349761311   0.345607910633   0.346915298201   
      0.348261929174   0.349637739745   0.351032714398   0.352436996704   0.353840990648   
      0.35523544997   0.356611553694   0.35796096671   0.359275885067   0.360549066307   
      0.36177384581   0.362944140561   0.364054442134   0.365099800827   0.36607580298   
      0.366978543424   0.367804594883   0.368550975955   0.369215119065   0.369794839542   
      0.370288306766   0.370694018094   0.371010776123   0.371237669664   0.37137405873   
      0.38206439988   0.382021065518   0.381891174316   0.381675064009   0.381373304418   
      0.380986707784   0.380516343148   0.379963554626   0.379329983378   0.378617592976   
      0.37782869773   0.376965993375   0.376032589357   0.375032041694   0.373968385218   
      0.372846163722   0.371670456361   0.370446898452   0.369181694729   0.367881623081   
      0.366554026894   0.365206794364   0.363848323483   0.362487471937   0.36113349174   
      0.359795949124   0.358484630939   0.357209439457   0.355980278124   0.354806931187   
      0.353698940456   0.35266548246   0.351715249143   0.350856334933   0.350096132528   
      0.349441239225   0.348897375067   0.348469313545   0.348160825183   0.347974633989   
      0.347912386618   0.347974633989   0.348160825183   0.348469313545   0.348897375067   
      0.349441239225   0.350096132528   0.350856334933   0.351715249143   0.35266548246   
      0.353698940456   0.354806931187   0.355980278124   0.357209439457   0.358484630939   
      0.359795949124   0.36113349174   0.362487471937   0.363848323483   0.365206794364   
      0.366554026894   0.367881623081   0.369181694729   0.370446898452   0.371670456361   
      0.372846163722   0.373968385218   0.375032041694   0.376032589357   0.376965993375   
      0.37782869773   0.378617592976   0.379329983378   0.379963554626   0.380516343148   
      0.380986707784   0.381373304418   0.381675064009   0.381891174316   0.382021065518   
      0.396805810663   0.396765946595   0.396646448403   0.396447600038   0.396169881146   
      0.395813976636   0.395380790023   0.394871460474   0.394287383417   0.393630234516   
      0.392901996704   0.392104989809   0.391241902197   0.3903158236   0.389330278145   
      0.388289256335   0.38719724452   0.386059250221   0.384880821468   0.383668058259   
      0.382427614222   0.381166686701   0.379892993677   0.378614736351   0.377340546671   
      0.376079419682   0.374840631232   0.373633642246   0.372467991407   0.371353178679   
      0.370298542509   0.369313133842   0.368405590182   0.367584012864   0.366855850466   
      0.366227790962   0.365705664796   0.365294360608   0.364997754912   0.364818656664   
      0.364758767304   0.364818656664   0.364997754912   0.365294360608   0.365705664796   
      0.366227790962   0.366855850466   0.367584012864   0.368405590182   0.369313133842   
      0.370298542509   0.371353178679   0.372467991407   0.373633642246   0.374840631232   
      0.376079419682   0.377340546671   0.378614736351   0.379892993677   0.381166686701   
      0.382427614222   0.383668058259   0.384880821468   0.386059250221   0.38719724452   
      0.388289256335   0.389330278145   0.3903158236   0.391241902197   0.392104989809   
      0.392901996704   0.393630234516   0.394287383417   0.394871460474   0.395380790023   
      0.395813976636   0.396169881146   0.396447600038   0.396646448403   0.396765946595   
      0.415600251677   0.4155653953   0.415460899861   0.415286988134   0.415044037016   