<?xml version="1.0"?>
<VTKFile type="ImageData" version="0.1" byte_order="LittleEndian">
  <ImageData WholeExtent="0 79 0 19 0 19" Origin="0 0 0" Spacing="1 1 1">
  <Piece Extent="0 79 0 19 0 19">
    <PointData Scalars="density">
       <DataArray type="Float32" Name="bluedensity" NumberOfComponents="1" format="ascii">
      0   0   0   0   0   
      0   0   0   0   0   
      0   0   0   0   0   
      0   0   0   0   0   
      0   0   0   0   0   
      0   0   0   0   0   
      0   0   0   0   0   
      0   0   0   0   0   
      0   0   0   0   0   
      0   0   0   0   0   
      0   0   0   0   0   
      0   0   0   0   0   
      0   0   0   0   0   
      0   0   0   0   0   
      0   0   0   0   0   
      0   0   0   0   0   
      0   0   0   0   0   
      0   0   0   0   0   
      0   0   0   0   0   
      0   0   0   0   0   
      0   0   0   0   0   
      0   0   0   0   0   
      0   0   0   0   0   
      0   0   0   0   0   
      0   0   0   0   0   
      0   0   0   0   0   
      0   0   0   0   0   
      0   0   0   0   0   
      0   0   0   0   0   
      0   0   0   0   0   
      0   0   0   0   0   
      0   0   0   0   0   
      0   0   0   0   0   
      0   0   0   0   0   
      0   0   0   0   0   
      0   0   0   0   0   
      0   0   0   0   0   
      0   0   0   0   0   
      0   0   0   0   0   
      0   0   0   0   0   
      0   0   0   0   0   
      0   0   0   0   0   
      0   0   0   0   0   
      0   0   0   0   0   
      0   0   0   0   0   
      0   0   0   0   0   
      0   0   0   0   0   
      0   0   0   0   0   
      0   0   0   0   0   
      0   0   0   0   0   
      0   0   0   0   0   
      0   0   0   0   0   
      0   0   0   0   0   
      0   0   0   0   0   
      0   0   0   0   0   
      0   0   0   0   0   
      0   0   0   0   0   
      0   0   0   0   0   
      0   0   0   0   0   
      0   0   0   0   0   
      0   0   0   0   0   
      0   0   0   0   0   
      0   0   0   0   0   
      0   0   0   0   0   
      0   0   0   0   0   
      0   0   0   0   0   
      0   0   0   0   0   
      0   0   0   0   0   
      0   0   0   0   0   
      0   0   0   0   0   
      0   0   0   0   0   
      0   0   0   0   0   
      0   0   0   0   0   
      0   0   0   0   0   
      0   0   0   0   0   
      0   0   0   0   0   
      0   0   0   0   0   
      0   0   0   0   0   
      0   0   0   0   0   
      0   0   0   0   0   
      0   0   0   0   0   
      0   0   0   0   0   
      0   0   0   0   0   
      0   0   0   0   0   
      0   0   0   0   0   
      0   0   0   0   0   
      0   0   0   0   0   
      0   0   0   0   0   
      0   0   0   0   0   
      0   0   0   0   0   
      0   0   0   0   0   
      0   0   0   0   0   
      0   0   0   0   0   
      0   0   0   0   0   
      0   0   0   0   0   
      0   0   0   0   0   
      0   0   0   0   0   
      0   0   0   0   0   
      0   0   0   0   0   
      0   0   0   0   0   
      0   0   0   0   0   
      0   0   0   0   0   
      0   0   0   0   0   
      0   0   0   0   0   
      0   0   0   0   0   
      0   0   0   0   0   
      0   0   0   0   0   
      0   0   0   0   0   
      0   0   0   0   0   
      0   0   0   0   0   
      0   0   0   0   0   
      0   0   0   0   0   
      0   0   0   0   0   
      0   0   0   0   0   
      0   0   0   0   0   
      0   0   0   0   0   
      0   0   0   0   0   
      0   0   0   0   0   
      0   0   0   0   0   
      0   0   0   0   0   
      0   0   0   0   0   
      0   0   0   0   0   
      0   0   0   0   0   
      0   0   0   0   0   
      0   0   0   0   0   
      0   0   0   0   0   
      0   0   0   0   0   
      0   0   0   0   0   
      0   0   0   0   0   
      0   0   0   0   0   
      0   0   0   0   0   
      0   0   0   0   0   
      0   0   0   0   0   
      0   0   0   0   0   
      0   0   0   0   0   
      0   0   0   0   0   
      0   0   0   0   0   
      0   0   0   0   0   
      0   0   0   0   0   
      0   0   0   0   0   
      0   0   0   0   0   
      0   0   0   0   0   
      0   0   0   0   0   
      0   0   0   0   0   
      0   0   0   0   0   
      0   0   0   0   0   
      0   0   0   0   0   
      0   0   0   0   0   
      0   0   0   0   0   
      0   0   0   0   0   
      0   0   0   0   0   
      0   0   0   0   0   
      0   0   0   0   0   
      0   0   0   0   0   
      0   0   0   0   0   
      0   0   0   0   0   
      0   0   0   0   0   
      0   0   0   0   0   
      0   0   0   0   0   
      0   0   0   0   0   
      0   0   0   0   0   
      0   0   0   0   0   
      0   0   0   0   0   
      0   0   0   0   0   
      0   0   0   0   0   
      0   0   0   0   0   
      0   0   0   0   0   
      0   0   0   0   0   
      0   0   0   0   0   
      0   0   0   0   0   
      0   0   0   0   0   
      0   0   0   0   0   
      0   0   0   0   0   
      0   0   0   0   0   
      0   0   0   0   0   
      0   0   0   0   0   
      0   0   0   0   0   
      0   0   0   0   0   
      0   0   0   0   0   
      0   0   0   0   0   
      0   0   0   0   0   
      0   0   0   0   0   
      0   0   0   0   0   
      0   0   0   0   0   
      0   0   0   0   0   
      0   0   0   0   0   
      0   0   0   0   0   
      0   0   0   0   0   
      0   0   0   0   0   
      0   0   0   0   0   
      0   0   0   0   0   
      0   0   0   0   0   
      0   0   0   0   0   
      0   0   0   0   0   
      0   0   0   0   0   
      0   0   0   0   0   
      0   0   0   0   0   
      0   0   0   0   0   
      0   0   0   0   0   
      0   0   0   0   0   
      0   0   0   0   0   
      0   0   0   0   0   
      0   0   0   0   0   
      0   0   0   0   0   
      0   0   0   0   0   
      0   0   0   0   0   
      0   0   0   0   0   
      0   0   0   0   0   
      0   0   0   0   0   
      0   0   0   0   0   
      0   0   0   0   0   
      0   0   0   0   0   
      0   0   0   0   0   
      0   0   0   0   0   
      0   0   0   0   0   
      0   0   0   0   0   
      0   0   0   0   0   
      0   0   0   0   0   
      0   0   0   0   0   
      0   0   0   0   0   
      0   0   0   0   0   
      0   0   0   0   0   
      0   0   0   0   0   
      0   0   0   0   0   
      0   0   0   0   0   
      0   0   0   0   0   
      0   0   0   0   0   
      0   0   0   0   0   
      0   0   0   0   0   
      0   0   0   0   0   
      0   0   0   0   0   
      0   0   0   0   0   
      0   0   0   0   0   
      0   0   0   0   0   
      0   0   0   0   0   
      0   0   0   0   0   
      0   0   0   0   0   
      0   0   0   0   0   
      0   0   0   0   0   
      0   0   0   0   0   
      0   0   0   0   0   
      0   0   0   0   0   
      0   0   0   0   0   
      0   0   0   0   0   
      0   0   0   0   0   
      0   0   0   0   0   
      0   0   0   0   0   
      0   0   0   0   0   
      0   0   0   0   0   
      0   0   0   0   0   
      0   0   0   0   0   
      0   0   0   0   0   
      0   0   0   0   0   
      0   0   0   0   0   
      0   0   0   0   0   
      0   0   0   0   0   
      0   0   0   0   0   
      0   0   0   0   0   
      0   0   0   0   0   
      0   0   0   0   0   
      0   0   0   0   0   
      0   0   0   0   0   
      0   0   0   0   0   
      0   0   0   0   0   
      0   0   0   0   0   
      0   0   0   0   0   
      0   0   0   0   0   
      0   0   0   0   0   
      0   0   0   0   0   
      0   0   0   0   0   
      0   0   0   0   0   
      0   0   0   0   0   
      0   0   0   0   0   
      0   0   0   0   0   
      0   0   0   0   0   
      0   0   0   0   0   
      0   0   0   0   0   
      0   0   0   0   0   
      0   0   0   0   0   
      0   0   0   0   0   
      0   0   0   0   0   
      0   0   0   0   0   
      0   0   0   0   0   
      0   0   0   0   0   
      0   0   0   0   0   
      0   0   0   0   0   
      0   0   0   0   0   
      0   0   0   0   0   
      0   0   0   0   0   
      0   0   0   0   0   
      0   0   0   0   0   
      0   0   0   0   0   
      0   0   0   0   0   
      0   0   0   0   0   
      0   0   0   0   0   
      0   0   0   0   0   
      0   0   0   0   0   
      0   0   0   0   0   
      0   0   0   0   0   
      0   0   0   0   0   
      0   0   0   0   0   
      0   0   0   0   0   
      0   0   0   0   0   
      0   0   0   0   0   
      0   0   0   0   0   
      0   0   0   0   0   
      0   0   0   0   0   
      0   0   0   0   0   
      0   0   0   0   0   
      0   0   0   0   0   
      0   0   0   0   0   
      0   0   0   0   0   
      0   0   0   0   0   
      0   0   0   0   0   
      0   0   0   0   0   
      0   0   0   0   0   
      0   0   0   0   0   
      0   0   0   0   0   
      0   0   0   0   0   
      0   0   0   0   0   
      0   0   0   0   0   
      0   0   0   0   0   
      0   0   0   0   0   
      0   0   0   0   0   
      0   0   0   0   0   
      0   0   0   0   0   
      0   0   0   0   0   
      0   0   0   0   0   
      0   0   0   0   0   
      0   0   0   0   0   
      0   0   0   0   0   
      0   0   0   0   0   
      0   0   0   0   0   
      0   0   0   0   0   
      0   0   0   0   0   
      0   0   0   0   0   
      0.57720953739   0.577188366878   0.577124864391   0.577019057951   0.576870997178   
      0.576680757784   0.576448448077   0.576174217679   0.575858268738   0.575500869924   
      0.575102373553   0.574663236171   0.574184042927   0.573665535974   0.57310864707   
      0.572514534318   0.5718846228   0.571220648519   0.570524704682   0.569799288923   
      0.569047349603   0.568272328812   0.567478199309   0.56666949225   0.5658513124   
      0.565029337518   0.56420979888   0.563399440426   0.562605454835   0.561835395862   
      0.56109706753   0.560398392063   0.55974725983   0.55915136576   0.558618037784   
      0.558154063576   0.557765522309   0.557457628216   0.557234592407   0.557099508762   
      0.557054268741   0.557099508762   0.557234592407   0.557457628216   0.557765522309   
      0.558154063576   0.558618037784   0.55915136576   0.55974725983   0.560398392063   
      0.56109706753   0.561835395862   0.562605454835   0.563399440426   0.56420979888   
      0.565029337518   0.5658513124   0.56666949225   0.567478199309   0.568272328812   
      0.569047349603   0.569799288923   0.570524704682   0.571220648519   0.5718846228   
      0.572514534318   0.57310864707   0.573665535974   0.574184042927   0.574663236171   
      0.575102373553   0.575500869924   0.575858268738   0.576174217679   0.576448448077   
      0.576680757784   0.576870997178   0.577019057951   0.577124864391   0.577188366878   
      0.467072253357   0.467043001237   0.46695525294   0.466809034011   0.466604391598   
      0.466341401457   0.46602017809   0.465640888291   0.46520376849   0.464709146312   
      0.464157466799   0.463549323741   0.462885496492   0.462166992536   0.461395095869   
      0.460571420969   0.459697971768   0.458777204538   0.457812093056   0.456806193805   
      0.455763708291   0.454689538993   0.453589334915   0.452469522425   0.451337316944   
      0.450200711334   0.449068437388   0.447949897798   0.446855067243   0.445794362775   
      0.444778485357   0.443818236096   0.44292431229   0.442107089728   0.44137639867   
      0.440741301477   0.440209880017   0.439789040677   0.439484344159   0.439299866287   
      0.439238094864   0.439299866287   0.439484344159   0.439789040677   0.440209880017   
      0.440741301477   0.44137639867   0.442107089728   0.44292431229   0.443818236096   
      0.444778485357   0.445794362775   0.446855067243   0.447949897798   0.449068437388   
      0.450200711334   0.451337316944   0.452469522425   0.453589334915   0.454689538993   
      0.455763708291   0.456806193805   0.457812093056   0.458777204538   0.459697971768   
      0.460571420969   0.461395095869   0.462166992536   0.462885496492   0.463549323741   
      0.464157466799   0.464709146312   0.46520376849   0.465640888291   0.46602017809   
      0.466341401457   0.466604391598   0.466809034011   0.46695525294   0.467043001237   
      0.443971646789   0.443933602444   0.443819485072   0.443629343594   0.443363266019   
      0.443021389362   0.442603913909   0.442111122205   0.441543403198   0.440901282035   
      0.440185456004   0.43939683705   0.43853660121   0.437606245065   0.436607649028   
      0.435543146839   0.434415600127   0.433228476221   0.431985926702   0.430692863403   
      0.429355027842   0.427979049464   0.426572487629   0.425143852186   0.423702597716   
      0.422259087195   0.420824521961   0.419410836358   0.418030557203   0.416696630199   
      0.415422217282   0.414220470686   0.413104290793   0.412086075831   0.411177471834   
      0.410389131178   0.409730487492   0.409209553847   0.408832750066   0.408604763814   
      0.408528448988   0.408604763814   0.408832750066   0.409209553847   0.409730487492   
      0.410389131178   0.411177471834   0.412086075831   0.413104290793   0.414220470686   
      0.415422217282   0.416696630199   0.418030557203   0.419410836358   0.420824521961   
      0.422259087195   0.423702597716   0.425143852186   0.426572487629   0.427979049464   
      0.429355027842   0.430692863403   0.431985926702   0.433228476221   0.434415600127   
      0.435543146839   0.436607649028   0.437606245065   0.43853660121   0.43939683705   
      0.440185456004   0.440901282035   0.441543403198   0.442111122205   0.442603913909   
      0.443021389362   0.443363266019   0.443629343594   0.443819485072   0.443933602444   
      0.421144721775   0.421097662067   0.420956514023   0.42072137344   0.420392408546   
      0.419969873069   0.419454124983   0.418845651323   0.418145099542   0.417353315921   
      0.41647139147   0.415500715691   0.414443038315   0.413300538846   0.41207590325   
      0.410772406585   0.40939399961   0.40794539664   0.406432161046   0.404860783947   
      0.403238750957   0.401574591349   0.399877903865   0.39815935369   0.396430635922   
      0.394704402179   0.392994148738   0.391314066712   0.389678857002   0.388103514905   
      0.386603091122   0.385192437254   0.38388594458   0.382697284993   0.381639162351   
      0.380723081462   0.379959140509   0.379355851249   0.378919989846   0.37865648007   
      0.378568309649   0.37865648007   0.378919989846   0.379355851249   0.379959140509   
      0.380723081462   0.381639162351   0.382697284993   0.38388594458   0.385192437254   
      0.386603091122   0.388103514905   0.389678857002   0.391314066712   0.392994148738   
      0.394704402179   0.396430635922   0.39815935369   0.399877903865   0.401574591349   
      0.403238750957   0.404860783947   0.406432161046   0.40794539664   0.40939399961   
      0.410772406585   0.41207590325   0.413300538846   0.414443038315   0.415500715691   
      0.41647139147   0.417353315921   0.418145099542   0.418845651323   0.419454124983   
      0.419969873069   0.420392408546   0.42072137344   0.420956514023   0.421097662067   
      0.403229178591   0.40317503765   0.403012665875   0.402742219501   0.402363969317   
      0.401878316481   0.401285815139   0.400587202213   0.399783434856   0.398875735977   
      0.3978656482   0.39675509641   0.395546458717   0.39424264522   0.392847183365   
      0.391364307935   0.389799052865   0.388157341142   0.386446068144   0.384673172969   
      0.382847691761   0.380979786822   0.379080745635   0.377162944782   0.375239775201   
      0.373325527229   0.371435236253   0.369584492332   0.36778921958   0.366065433115   
      0.364428982787   0.362895293449   0.361479111285   0.360194264632   0.359053446062   
      0.358068020473   0.357247861803   0.356601219103   0.356134611139   0.355852747758   
      0.355758475831   0.355852747758   0.356134611139   0.356601219103   0.357247861803   
      0.358068020473   0.359053446062   0.360194264632   0.361479111285   0.362895293449   
      0.364428982787   0.366065433115   0.36778921958   0.369584492332   0.371435236253   
      0.373325527229   0.375239775201   0.377162944782   0.379080745635   0.380979786822   
      0.382847691761   0.384673172969   0.386446068144   0.388157341142   0.389799052865   
      0.391364307935   0.392847183365   0.39424264522   0.395546458717   0.39675509641   
      0.3978656482   0.398875735977   0.399783434856   0.400587202213   0.401285815139   
      0.401878316481   0.402363969317   0.402742219501   0.403012665875   0.40317503765   
      0.389113137909   0.389053961932   0.388876504882   0.388580982957   0.3881677684   
      0.38763740761   0.386990646938   0.386228466553   0.385352122782   0.384363199266   
      0.383263667102   0.382055953889   0.380743021158   0.379328449073   0.377816526595   
      0.376212344391   0.374521886845   0.372752118496   0.370911059388   0.369007843099   
      0.36705275094   0.365057215992   0.363033791506   0.36099607964   0.358958618668   
      0.356936729331   0.354946323884   0.353003684108   0.351125216926   0.349327197849   
      0.347625513185   0.346035411556   0.344571273954   0.343246409438   0.34207288101   
      0.341061363437   0.340221032321   0.339559481621   0.339082665502   0.338794859741   
      0.338698638084   0.338794859741   0.339082665502   0.339559481621   0.340221032321   
      0.341061363437   0.34207288101   0.343246409438   0.344571273954   0.346035411556   
      0.347625513185   0.349327197849   0.351125216926   0.353003684108   0.354946323884   
      0.356936729331   0.358958618668   0.36099607964   0.363033791506   0.365057215992   
      0.36705275094   0.369007843099   0.370911059388   0.372752118496   0.374521886845   
      0.376212344391   0.377816526595   0.379328449073   0.380743021158   0.382055953889   
      0.383263667102   0.384363199266   0.385352122782   0.386228466553   0.386990646938   
      0.38763740761   0.3881677684   0.388580982957   0.388876504882   0.389053961932   
      0.378870864551   0.378808448645   0.378621288347   0.378309649842   0.377873989895   
      0.377314975767   0.376633513515   0.375830785022   0.374908294079   0.373867921761   
      0.372711991075   0.371443340553   0.370065405894   0.368582308114   0.366998945796   
      0.365321088089   0.363555464053   0.361709842969   0.359793099414   0.357815256372   
      0.355787499671   0.353722157602   0.35163264094   0.349533340565   0.347439482578   
      0.345366943785   0.343332033522   0.341351250567   0.339441025932   0.337617463438   
      0.335896089878   0.334291625342   0.33281778205   0.331487097129   0.330310801552   
      0.32929872436   0.328459228617   0.327799173609   0.327323896685   0.327037207919   
      0.326941391361   0.327037207919   0.327323896685   0.327799173609   0.328459228617   
      0.32929872436   0.330310801552   0.331487097129   0.33281778205   0.334291625342   
      0.335896089878   0.337617463438   0.339441025932   0.341351250567   0.343332033522   
      0.345366943785   0.347439482578   0.349533340565   0.35163264094   0.353722157602   
      0.355787499671   0.357815256372   0.359793099414   0.361709842969   0.363555464053   
      0.365321088089   0.366998945796   0.368582308114   0.370065405894   0.371443340553   
      0.372711991075   0.373867921761   0.374908294079   0.375830785022   0.376633513515   
      0.377314975767   0.377873989895   0.378309649842   0.378621288347   0.378808448645   
      0.372272284816   0.372207985384   0.372015186174   0.371694188612   0.371245509068   
      0.370669900046   0.369968380249   0.369142273808   0.368193258958   0.367123426253   
      0.365935346195   0.364632145697   0.363217592218   0.36169618367   0.36007324124   
      0.358355001293   0.356548701429   0.35466265481   0.352706306122   0.350690262203   
      0.34862629059   0.346527280175   0.344407159836   0.342280773375   0.340163712034   
      0.338072109186   0.336022404933   0.334031091055   0.332114448494   0.33028829017   
      0.328567721275   0.326966927256   0.325498996892   0.324175784463   0.323007811424   
      0.322004204774   0.321172666647   0.320519467872   0.320049457403   0.3197660796   
      0.319671392224   0.3197660796   0.320049457403   0.320519467872   0.321172666647   
      0.322004204774   0.323007811424   0.324175784463   0.325498996892   0.326966927256   
      0.328567721275   0.33028829017   0.332114448494   0.334031091055   0.336022404933   
      0.338072109186   0.340163712034   0.342280773375   0.344407159836   0.346527280175   
      0.34862629059   0.350690262203   0.352706306122   0.35466265481   0.356548701429   
      0.358355001293   0.36007324124   0.36169618367   0.363217592218   0.364632145697   
      0.365935346195   0.367123426253   0.368193258958   0.369142273808   0.369968380249   
      0.370669900046   0.371245509068   0.371694188612   0.372015186174   0.372207985384   
      0.369057736636   0.368992579795   0.368797214369   0.368471959958   0.368017363669   
      0.36743422198   0.366723611719   0.365886930435   0.364925946394   0.363842858237   
      0.362640364085   0.361321739385   0.359890922188   0.358352603737   0.356712321304   
      0.354976549156   0.353152782461   0.351249608003   0.349276754857   0.34724511798   
      0.345166747973   0.343054801458   0.340923448336   0.338787734874   0.336663404707   
      0.33456668323   0.332514034052   0.330521898795   0.328606433059   0.326783251766   
      0.325067196022   0.323472131478   0.322010784973   0.320694622647   0.319533768977   
      0.318536962927   0.31771154479   0.317063465622   0.316597310489   0.316316326958   
      0.316222451354   0.316316326958   0.316597310489   0.317063465622   0.31771154479   
      0.318536962927   0.319533768977   0.320694622647   0.322010784973   0.323472131478   
      0.325067196022   0.326783251766   0.328606433059   0.330521898795   0.332514034052   
      0.33456668323   0.336663404707   0.338787734874   0.340923448336   0.343054801458   
      0.345166747973   0.34724511798   0.349276754857   0.351249608003   0.353152782461   
      0.354976549156   0.356712321304   0.358352603737   0.359890922188   0.361321739385   
      0.362640364085   0.363842858237   0.364925946394   0.365886930435   0.366723611719   
      0.36743422198   0.368017363669   0.368471959958   0.368797214369   0.368992579795   
      0.369057736636   0.368992579795   0.368797214369   0.368471959958   0.368017363669   
      0.36743422198   0.366723611719   0.365886930435   0.364925946394   0.363842858237   
      0.362640364085   0.361321739385   0.359890922188   0.358352603737   0.356712321304   
      0.354976549156   0.353152782461   0.351249608003   0.349276754857   0.34724511798   
      0.345166747973   0.343054801458   0.340923448336   0.338787734874   0.336663404707   
      0.33456668323   0.332514034052   0.330521898795   0.328606433059   0.326783251766   
      0.325067196022   0.323472131478   0.322010784973   0.320694622647   0.319533768977   
      0.318536962927   0.31771154479   0.317063465622   0.316597310489   0.316316326958   
      0.316222451354   0.316316326958   0.316597310489   0.317063465622   0.31771154479   
      0.318536962927   0.319533768977   0.320694622647   0.322010784973   0.323472131478   
      0.325067196022   0.326783251766   0.328606433059   0.330521898795   0.332514034052   
      0.33456668323   0.336663404707   0.338787734874   0.340923448336   0.343054801458   
      0.345166747973   0.34724511798   0.349276754857   0.351249608003   0.353152782461   
      0.354976549156   0.356712321304   0.358352603737   0.359890922188   0.361321739385   
      0.362640364085   0.363842858237   0.364925946394   0.365886930435   0.366723611719   
      0.36743422198   0.368017363669   0.368471959958   0.368797214369   0.368992579795   
      0.372272284816   0.372207985384   0.372015186174   0.371694188612   0.371245509068   
      0.370669900046   0.369968380249   0.369142273808   0.368193258958   0.367123426253   
      0.365935346195   0.364632145697   0.363217592218   0.36169618367   0.36007324124   
      0.358355001293   0.356548701429   0.35466265481   0.352706306122   0.350690262203   
      0.34862629059   0.346527280175   0.344407159836   0.342280773375   0.340163712034   
      0.338072109186   0.336022404933   0.334031091055   0.332114448494   0.33028829017   
      0.328567721275   0.326966927256   0.325498996892   0.324175784463   0.323007811424   
      0.322004204774   0.321172666647   0.320519467872   0.320049457403   0.3197660796   
      0.319671392224   0.3197660796   0.320049457403   0.320519467872   0.321172666647   
      0.322004204774   0.323007811424   0.324175784463   0.325498996892   0.326966927256   
      0.328567721275   0.33028829017   0.332114448494   0.334031091055   0.336022404933   
      0.338072109186   0.340163712034   0.342280773375   0.344407159836   0.346527280175   
      0.34862629059   0.350690262203   0.352706306122   0.35466265481   0.356548701429   
      0.358355001293   0.36007324124   0.36169618367   0.363217592218   0.364632145697   
      0.365935346195   0.367123426253   0.368193258958   0.369142273808   0.369968380249   
      0.370669900046   0.371245509068   0.371694188612   0.372015186174   0.372207985384   
      0.378870864551   0.378808448645   0.378621288347   0.378309649842   0.377873989895   
      0.377314975767   0.376633513515   0.375830785022   0.374908294079   0.373867921761   
      0.372711991075   0.371443340553   0.370065405894   0.368582308114   0.366998945796   
      0.365321088089   0.363555464053   0.361709842969   0.359793099414   0.357815256372   
      0.355787499671   0.353722157602   0.35163264094   0.349533340565   0.347439482578   
      0.345366943785   0.343332033522   0.341351250567   0.339441025932   0.337617463438   
      0.335896089878   0.334291625342   0.33281778205   0.331487097129   0.330310801552   
      0.32929872436   0.328459228617   0.327799173609   0.327323896685   0.327037207919   
      0.326941391361   0.327037207919   0.327323896685   0.327799173609   0.328459228617   
      0.32929872436   0.330310801552   0.331487097129   0.33281778205   0.334291625342   
      0.335896089878   0.337617463438   0.339441025932   0.341351250567   0.343332033522   
      0.345366943785   0.347439482578   0.349533340565   0.35163264094   0.353722157602   
      0.355787499671   0.357815256372   0.359793099414   0.361709842969   0.363555464053   
      0.365321088089   0.366998945796   0.368582308114   0.370065405894   0.371443340553   
      0.372711991075   0.373867921761   0.374908294079   0.375830785022   0.376633513515   
      0.377314975767   0.377873989895   0.378309649842   0.378621288347   0.378808448645   
      0.389113137909   0.389053961932   0.388876504882   0.388580982957   0.3881677684   
      0.38763740761   0.386990646938   0.386228466553   0.385352122782   0.384363199266   
      0.383263667102   0.382055953889   0.380743021158   0.379328449073   0.377816526595   
      0.376212344391   0.374521886845   0.372752118496   0.370911059388   0.369007843099   
      0.36705275094   0.365057215992   0.363033791506   0.36099607964   0.358958618668   
      0.356936729331   0.354946323884   0.353003684108   0.351125216926   0.349327197849   
      0.347625513185   0.346035411556   0.344571273954   0.343246409438   0.34207288101   
      0.341061363437   0.340221032321   0.339559481621   0.339082665502   0.338794859741   
      0.338698638084   0.338794859741   0.339082665502   0.339559481621   0.340221032321   
      0.341061363437   0.34207288101   0.343246409438   0.344571273954   0.346035411556   
      0.347625513185   0.349327197849   0.351125216926   0.353003684108   0.354946323884   
      0.356936729331   0.358958618668   0.36099607964   0.363033791506   0.365057215992   
      0.36705275094   0.369007843099   0.370911059388   0.372752118496   0.374521886845   
      0.376212344391   0.377816526595   0.379328449073   0.380743021158   0.382055953889   
      0.383263667102   0.384363199266   0.385352122782   0.386228466553   0.386990646938   
      0.38763740761   0.3881677684   0.388580982957   0.388876504882   0.389053961932   
      0.403229178591   0.40317503765   0.403012665875   0.402742219501   0.402363969317   
      0.401878316481   0.401285815139   0.400587202213   0.399783434856   0.398875735977   
      0.3978656482   0.39675509641   0.395546458717   0.39424264522   0.392847183365   
      0.391364307935   0.389799052865   0.388157341142   0.386446068144   0.384673172969   
      0.382847691761   0.380979786822   0.379080745635   0.377162944782   0.375239775201   
      0.373325527229   0.371435236253   0.369584492332   0.36778921958   0.366065433115   
      0.364428982787   0.362895293449   0.361479111285   0.360194264632   0.359053446062   
      0.358068020473   0.357247861803   0.356601219103   0.356134611139   0.355852747758   
      0.355758475831   0.355852747758   0.356134611139   0.356601219103   0.357247861803   
      0.358068020473   0.359053446062   0.360194264632   0.361479111285   0.362895293449   
      0.364428982787   0.366065433115   0.36778921958   0.369584492332   0.371435236253   
      0.373325527229   0.375239775201   0.377162944782   0.379080745635   0.380979786822   
      0.382847691761   0.384673172969   0.386446068144   0.388157341142   0.389799052865   
      0.391364307935   0.392847183365   0.39424264522   0.395546458717   0.39675509641   
      0.3978656482   0.398875735977   0.399783434856   0.400587202213   0.401285815139   
      0.401878316481   0.402363969317   0.402742219501   0.403012665875   0.40317503765   
      0.421144721775   0.421097662067   0.420956514023   0.42072137344   0.420392408546   