<?xml version="1.0"?>
<VTKFile type="ImageData" version="0.1" byte_order="LittleEndian">
  <ImageData WholeExtent="0 79 0 19 0 19" Origin="0 0 0" Spacing="1 1 1">
  <Piece Extent="0 79 0 19 0 19">
    <PointData Scalars="density">
       <DataArray type="Float32" Name="bluedensity" NumberOfComponents="1" format="ascii">
      0   0   0   0   0   
      0   0   0   0   0   
      0   0   0   0   0   
      0   0   0   0   0   
      0   0   0   0   0   
      0   0   0   0   0   
      0   0   0   0   0   
      0   0   0   0   0   
      0   0   0   0   0   
      0   0   0   0   0   
      0   0   0   0   0   
      0   0   0   0   0   
      0   0   0   0   0   
      0   0   0   0   0   
      0   0   0   0   0   
      0   0   0   0   0   
      0   0   0   0   0   
      0   0   0   0   0   
      0   0   0   0   0   
      0   0   0   0   0   
      0   0   0   0   0   
      0   0   0   0   0   
      0   0   0   0   0   
      0   0   0   0   0   
      0   0   0   0   0   
      0   0   0   0   0   
      0   0   0   0   0   
      0   0   0   0   0   
      0   0   0   0   0   
      0   0   0   0   0   
      0   0   0   0   0   
      0   0   0   0   0   
      0   0   0   0   0   
      0   0   0   0   0   
      0   0   0   0   0   
      0   0   0   0   0   
      0   0   0   0   0   
      0   0   0   0   0   
      0   0   0   0   0   
      0   0   0   0   0   
      0   0   0   0   0   
      0   0   0   0   0   
      0   0   0   0   0   
      0   0   0   0   0   
      0   0   0   0   0   
      0   0   0   0   0   
      0   0   0   0   0   
      0   0   0   0   0   
      0   0   0   0   0   
      0   0   0   0   0   
      0   0   0   0   0   
      0   0   0   0   0   
      0   0   0   0   0   
      0   0   0   0   0   
      0   0   0   0   0   
      0   0   0   0   0   
      0   0   0   0   0   
      0   0   0   0   0   
      0   0   0   0   0   
      0   0   0   0   0   
      0   0   0   0   0   
      0   0   0   0   0   
      0   0   0   0   0   
      0   0   0   0   0   
      0   0   0   0   0   
      0   0   0   0   0   
      0   0   0   0   0   
      0   0   0   0   0   
      0   0   0   0   0   
      0   0   0   0   0   
      0   0   0   0   0   
      0   0   0   0   0   
      0   0   0   0   0   
      0   0   0   0   0   
      0   0   0   0   0   
      0   0   0   0   0   
      0   0   0   0   0   
      0   0   0   0   0   
      0   0   0   0   0   
      0   0   0   0   0   
      0   0   0   0   0   
      0   0   0   0   0   
      0   0   0   0   0   
      0   0   0   0   0   
      0   0   0   0   0   
      0   0   0   0   0   
      0   0   0   0   0   
      0   0   0   0   0   
      0   0   0   0   0   
      0   0   0   0   0   
      0   0   0   0   0   
      0   0   0   0   0   
      0   0   0   0   0   
      0   0   0   0   0   
      0   0   0   0   0   
      0   0   0   0   0   
      0   0   0   0   0   
      0   0   0   0   0   
      0   0   0   0   0   
      0   0   0   0   0   
      0   0   0   0   0   
      0   0   0   0   0   
      0   0   0   0   0   
      0   0   0   0   0   
      0   0   0   0   0   
      0   0   0   0   0   
      0   0   0   0   0   
      0   0   0   0   0   
      0   0   0   0   0   
      0   0   0   0   0   
      0   0   0   0   0   
      0   0   0   0   0   
      0   0   0   0   0   
      0   0   0   0   0   
      0   0   0   0   0   
      0   0   0   0   0   
      0   0   0   0   0   
      0   0   0   0   0   
      0   0   0   0   0   
      0   0   0   0   0   
      0   0   0   0   0   
      0   0   0   0   0   
      0   0   0   0   0   
      0   0   0   0   0   
      0   0   0   0   0   
      0   0   0   0   0   
      0   0   0   0   0   
      0   0   0   0   0   
      0   0   0   0   0   
      0   0   0   0   0   
      0   0   0   0   0   
      0   0   0   0   0   
      0   0   0   0   0   
      0   0   0   0   0   
      0   0   0   0   0   
      0   0   0   0   0   
      0   0   0   0   0   
      0   0   0   0   0   
      0   0   0   0   0   
      0   0   0   0   0   
      0   0   0   0   0   
      0   0   0   0   0   
      0   0   0   0   0   
      0   0   0   0   0   
      0   0   0   0   0   
      0   0   0   0   0   
      0   0   0   0   0   
      0   0   0   0   0   
      0   0   0   0   0   
      0   0   0   0   0   
      0   0   0   0   0   
      0   0   0   0   0   
      0   0   0   0   0   
      0   0   0   0   0   
      0   0   0   0   0   
      0   0   0   0   0   
      0   0   0   0   0   
      0   0   0   0   0   
      0   0   0   0   0   
      0   0   0   0   0   
      0   0   0   0   0   
      0   0   0   0   0   
      0   0   0   0   0   
      0   0   0   0   0   
      0   0   0   0   0   
      0   0   0   0   0   
      0   0   0   0   0   
      0   0   0   0   0   
      0   0   0   0   0   
      0   0   0   0   0   
      0   0   0   0   0   
      0   0   0   0   0   
      0   0   0   0   0   
      0   0   0   0   0   
      0   0   0   0   0   
      0   0   0   0   0   
      0   0   0   0   0   
      0   0   0   0   0   
      0   0   0   0   0   
      0   0   0   0   0   
      0   0   0   0   0   
      0   0   0   0   0   
      0   0   0   0   0   
      0   0   0   0   0   
      0   0   0   0   0   
      0   0   0   0   0   
      0   0   0   0   0   
      0   0   0   0   0   
      0   0   0   0   0   
      0   0   0   0   0   
      0   0   0   0   0   
      0   0   0   0   0   
      0   0   0   0   0   
      0   0   0   0   0   
      0   0   0   0   0   
      0   0   0   0   0   
      0   0   0   0   0   
      0   0   0   0   0   
      0   0   0   0   0   
      0   0   0   0   0   
      0   0   0   0   0   
      0   0   0   0   0   
      0   0   0   0   0   
      0   0   0   0   0   
      0   0   0   0   0   
      0   0   0   0   0   
      0   0   0   0   0   
      0   0   0   0   0   
      0   0   0   0   0   
      0   0   0   0   0   
      0   0   0   0   0   
      0   0   0   0   0   
      0   0   0   0   0   
      0   0   0   0   0   
      0   0   0   0   0   
      0   0   0   0   0   
      0   0   0   0   0   
      0   0   0   0   0   
      0   0   0   0   0   
      0   0   0   0   0   
      0   0   0   0   0   
      0   0   0   0   0   
      0   0   0   0   0   
      0   0   0   0   0   
      0   0   0   0   0   
      0   0   0   0   0   
      0   0   0   0   0   
      0   0   0   0   0   
      0   0   0   0   0   
      0   0   0   0   0   
      0   0   0   0   0   
      0   0   0   0   0   
      0   0   0   0   0   
      0   0   0   0   0   
      0   0   0   0   0   
      0   0   0   0   0   
      0   0   0   0   0   
      0   0   0   0   0   
      0   0   0   0   0   
      0   0   0   0   0   
      0   0   0   0   0   
      0   0   0   0   0   
      0   0   0   0   0   
      0   0   0   0   0   
      0   0   0   0   0   
      0   0   0   0   0   
      0   0   0   0   0   
      0   0   0   0   0   
      0   0   0   0   0   
      0   0   0   0   0   
      0   0   0   0   0   
      0   0   0   0   0   
      0   0   0   0   0   
      0   0   0   0   0   
      0   0   0   0   0   
      0   0   0   0   0   
      0   0   0   0   0   
      0   0   0   0   0   
      0   0   0   0   0   
      0   0   0   0   0   
      0   0   0   0   0   
      0   0   0   0   0   
      0   0   0   0   0   
      0   0   0   0   0   
      0   0   0   0   0   
      0   0   0   0   0   
      0   0   0   0   0   
      0   0   0   0   0   
      0   0   0   0   0   
      0   0   0   0   0   
      0   0   0   0   0   
      0   0   0   0   0   
      0   0   0   0   0   
      0   0   0   0   0   
      0   0   0   0   0   
      0   0   0   0   0   
      0   0   0   0   0   
      0   0   0   0   0   
      0   0   0   0   0   
      0   0   0   0   0   
      0   0   0   0   0   
      0   0   0   0   0   
      0   0   0   0   0   
      0   0   0   0   0   
      0   0   0   0   0   
      0   0   0   0   0   
      0   0   0   0   0   
      0   0   0   0   0   
      0   0   0   0   0   
      0   0   0   0   0   
      0   0   0   0   0   
      0   0   0   0   0   
      0   0   0   0   0   
      0   0   0   0   0   
      0   0   0   0   0   
      0   0   0   0   0   
      0   0   0   0   0   
      0   0   0   0   0   
      0   0   0   0   0   
      0   0   0   0   0   
      0   0   0   0   0   
      0   0   0   0   0   
      0   0   0   0   0   
      0   0   0   0   0   
      0   0   0   0   0   
      0   0   0   0   0   
      0   0   0   0   0   
      0   0   0   0   0   
      0   0   0   0   0   
      0   0   0   0   0   
      0   0   0   0   0   
      0   0   0   0   0   
      0   0   0   0   0   
      0   0   0   0   0   
      0   0   0   0   0   
      0   0   0   0   0   
      0   0   0   0   0   
      0   0   0   0   0   
      0   0   0   0   0   
      0   0   0   0   0   
      0   0   0   0   0   
      0   0   0   0   0   
      0   0   0   0   0   
      0   0   0   0   0   
      0   0   0   0   0   
      0   0   0   0   0   
      0   0   0   0   0   
      0   0   0   0   0   
      0   0   0   0   0   
      0   0   0   0   0   
      0   0   0   0   0   
      0   0   0   0   0   
      0   0   0   0   0   
      0   0   0   0   0   
      0   0   0   0   0   
      0   0   0   0   0   
      0.575253803021   0.57523718428   0.575187354529   0.575104393909   0.574988438431   
      0.574839683672   0.574658389997   0.574444889371   0.574199593798   0.573923005448   
      0.573615728489   0.573278482639   0.572912118391   0.572517633804   0.572096192671   
      0.571649143774   0.571178040813   0.570684662446   0.57017103174   0.569639434162   
      0.569092433117   0.568532881867   0.567963930628   0.567389027558   0.566811912399   
      0.566236601631   0.5656673642   0.565108687143   0.564565230844   0.564041774043   
      0.563543149247   0.563074169695   0.562639549537   0.562243819336   0.561891239417   
      0.561585713832   0.561330707908   0.561129172313   0.560983476468   0.560895353845   
      0.56086586127   0.560895353845   0.560983476468   0.561129172313   0.561330707908   
      0.561585713832   0.561891239417   0.562243819336   0.562639549537   0.563074169695   
      0.563543149247   0.564041774043   0.564565230844   0.565108687143   0.5656673642   
      0.566236601631   0.566811912399   0.567389027558   0.567963930628   0.568532881867   
      0.569092433117   0.569639434162   0.57017103174   0.570684662446   0.571178040813   
      0.571649143774   0.572096192671   0.572517633804   0.572912118391   0.573278482639   
      0.573615728489   0.573923005448   0.574199593798   0.574444889371   0.574658389997   
      0.574839683672   0.574988438431   0.575104393909   0.575187354529   0.57523718428   
      0.464247615323   0.464224597574   0.464155579154   0.464040665648   0.463880036721   
      0.463673951684   0.463422757359   0.463126898306   0.462786929459   0.462403531222   
      0.461977527054   0.461509903482   0.461001832468   0.460454695899   0.459870111877   
      0.459249962325   0.458596421242   0.457911982734   0.457199487769   0.456462148359   
      0.455703567734   0.454927754881   0.454139131781   0.453342531635   0.452543186492   
      0.451746702892   0.450959024444   0.450186380723   0.449435222382   0.448712142984   
      0.448023788725   0.447376757839   0.446777492109   0.446232163398   0.445746558557   
      0.445325966292   0.444975069698   0.444697848054   0.444497491287   0.444376330077   
      0.444335784075   0.444376330077   0.444497491287   0.444697848054   0.444975069698   
      0.445325966292   0.445746558557   0.446232163398   0.446777492109   0.447376757839   
      0.448023788725   0.448712142984   0.449435222382   0.450186380723   0.450959024444   
      0.451746702892   0.452543186492   0.453342531635   0.454139131781   0.454927754881   
      0.455703567734   0.456462148359   0.457199487769   0.457911982734   0.458596421242   
      0.459249962325   0.459870111877   0.460454695899   0.461001832468   0.461509903482   
      0.461977527054   0.462403531222   0.462786929459   0.463126898306   0.463422757359   
      0.463673951684   0.463880036721   0.464040665648   0.464155579154   0.464224597574   
      0.440218571591   0.440188705867   0.440099158082   0.43995007787   0.439741719573   
      0.439474449706   0.439148757463   0.438765268328   0.438324760813   0.437828186343   
      0.437276692241   0.436671647692   0.436014672462   0.435307668002   0.434552850398   
      0.433752784414   0.432910417665   0.432029113699   0.431112682532   0.43016540696   
      0.429192062785   0.428197930982   0.427188799827   0.426170955061   0.425151156435   
      0.424136599289   0.423134860341   0.422153827431   0.421201613681   0.420286457201   
      0.41941660825   0.418600206379   0.417845150664   0.417158966575   0.416548673271   
      0.416020655234   0.415580542068   0.415233100059   0.41498213873   0.414830435177   
      0.414779678387   0.414830435177   0.41498213873   0.415233100059   0.415580542068   
      0.416020655234   0.416548673271   0.417158966575   0.417845150664   0.418600206379   
      0.41941660825   0.420286457201   0.421201613681   0.422153827431   0.423134860341   
      0.424136599289   0.425151156435   0.426170955061   0.427188799827   0.428197930982   
      0.429192062785   0.43016540696   0.431112682532   0.432029113699   0.432910417665   
      0.433752784414   0.434552850398   0.435307668002   0.436014672462   0.436671647692   
      0.437276692241   0.437828186343   0.438324760813   0.438765268328   0.439148757463   
      0.439474449706   0.439741719573   0.43995007787   0.440099158082   0.440188705867   
      0.416439627128   0.416402844111   0.416292564213   0.416108996752   0.415852496774   
      0.415523574357   0.415122907667   0.414651359791   0.414109999326   0.413500124671   
      0.412823291869   0.412081345753   0.411276453978   0.410411143366   0.409488337737   
      0.408511396173   0.407484150382   0.40641093957   0.405296640974   0.404146694004   
      0.402967115808   0.401764506076   0.400546038939   0.399319440134   0.398092947947   
      0.396875257015   0.395675444725   0.394502880703   0.393367120652   0.392277786585   
      0.391244436159   0.390276424384   0.389382761357   0.388571969864   0.387851946707   
      0.387229831423   0.386711885776   0.386303386958   0.386008536986   0.385830390264   
      0.385770800825   0.385830390264   0.386008536986   0.386303386958   0.386711885776   
      0.387229831423   0.387851946707   0.388571969864   0.389382761357   0.390276424384   
      0.391244436159   0.392277786585   0.393367120652   0.394502880703   0.395675444725   
      0.396875257015   0.398092947947   0.399319440134   0.400546038939   0.401764506076   
      0.402967115808   0.404146694004   0.405296640974   0.40641093957   0.407484150382   
      0.408511396173   0.409488337737   0.410411143366   0.411276453978   0.412081345753   
      0.412823291869   0.413500124671   0.414109999326   0.414651359791   0.415122907667   
      0.415523574357   0.415852496774   0.416108996752   0.416292564213   0.416402844111   
      0.397773994913   0.397731887093   0.397605653391   0.397395565213   0.39710208202   
      0.396725861998   0.396267776992   0.395728931676   0.395110686857   0.394414686773   
      0.393642890107   0.392797604285   0.391881522481   0.39089776246   0.389849906194   
      0.388742038873   0.387578785645   0.386365344181   0.38510751091   0.383811698638   
      0.382484943232   0.381134897146   0.379769807817   0.378398479413   0.377030216958   
      0.375674752618   0.374342154704   0.37304272081   0.371786857296   0.370584947997   
      0.36944721562   0.368383579557   0.367403513966   0.366515909851   0.365728944518   
      0.365049961345   0.364485362253   0.364040514676   0.363719674322   0.363525924545   
      0.363461132818   0.363525924545   0.363719674322   0.364040514676   0.364485362253   
      0.365049961345   0.365728944518   0.366515909851   0.367403513966   0.368383579557   
      0.36944721562   0.370584947997   0.371786857296   0.37304272081   0.374342154704   
      0.375674752618   0.377030216958   0.378398479413   0.379769807817   0.381134897146   
      0.382484943232   0.383811698638   0.38510751091   0.386365344181   0.387578785645   
      0.388742038873   0.389849906194   0.39089776246   0.391881522481   0.392797604285   
      0.393642890107   0.394414686773   0.395110686857   0.395728931676   0.396267776992   
      0.396725861998   0.39710208202   0.397395565213   0.397605653391   0.397731887093   
      0.38312309049   0.38307727658   0.382939943046   0.382711416815   0.382392250543   
      0.381983234267   0.381485411646   0.380900100724   0.380228919028   0.379473812749   
      0.378637089605   0.377721454776   0.376730049129   0.375666488642   0.374534903687   
      0.373339976534   0.372086975124   0.370781780967   0.369430908806   0.368041515657   
      0.366621396904   0.365178967367   0.363723225718   0.36226370117   0.360810382176   
      0.359373627676   0.357964062364   0.356592458281   0.355269605794   0.354006177565   
      0.352812589434   0.351698862188   0.350674487948   0.349748304471   0.34892838006   
      0.348221911017   0.347635132904   0.347173246169   0.346840356206   0.346639427527   
      0.346572251553   0.346639427527   0.346840356206   0.347173246169   0.347635132904   
      0.348221911017   0.34892838006   0.349748304471   0.350674487948   0.351698862188   
      0.352812589434   0.354006177565   0.355269605794   0.356592458281   0.357964062364   
      0.359373627676   0.360810382176   0.36226370117   0.363723225718   0.365178967367   
      0.366621396904   0.368041515657   0.369430908806   0.370781780967   0.372086975124   
      0.373339976534   0.374534903687   0.375666488642   0.376730049129   0.377721454776   
      0.378637089605   0.379473812749   0.380228919028   0.380900100724   0.381485411646   
      0.381983234267   0.382392250543   0.382711416815   0.382939943046   0.38307727658   
      0.372535727506   0.372487583927   0.372343275918   0.372103174134   0.371767904571   
      0.37133836088   0.370815721489   0.370201471388   0.36949742835   0.368705773203   
      0.367829083638   0.366870370797   0.365833117666   0.364721317997   0.36353951419   
      0.362292832277   0.360987011871   0.359628428748   0.3582241076   0.35678172256   
      0.355309583266   0.353816604617   0.352312258972   0.35080651024   0.349309730248   
      0.347832598658   0.346385988672   0.344980841586   0.343628033892   0.342338241014   
      0.341121801858   0.339988588152   0.338947882032   0.338008264655   0.337177517763   
      0.33646253922   0.335869272776   0.335402651547   0.335066554277   0.33486377315   
      0.334795991901   0.33486377315   0.335066554277   0.335402651547   0.335869272776   
      0.33646253922   0.337177517763   0.338008264655   0.338947882032   0.339988588152   
      0.341121801858   0.342338241014   0.343628033892   0.344980841586   0.346385988672   
      0.347832598658   0.349309730248   0.35080651024   0.352312258972   0.353816604617   
      0.355309583266   0.35678172256   0.3582241076   0.359628428748   0.360987011871   
      0.362292832277   0.36353951419   0.364721317997   0.365833117666   0.366870370797   
      0.367829083638   0.368705773203   0.36949742835   0.370201471388   0.370815721489   
      0.37133836088   0.371767904571   0.372103174134   0.372343275918   0.372487583927   
      0.365736229233   0.36568676174   0.365538491928   0.365291820359   0.364947423169   
      0.364506264795   0.363969615638   0.363339074472   0.362616595303   0.361804518215   
      0.360905603603   0.359923068905   0.358860626734   0.357722522981   0.356513573176   
      0.355239195094   0.353905435327   0.352518987411   0.351087198998   0.349618065684   
      0.348120209407   0.346602839767   0.345075697352   0.343548978952   0.342033245527   
      0.340539314768   0.339078141044   0.337660686288   0.336297785934   0.335000014277   
      0.33377755352   0.332640070381   0.331596603456   0.330655463644   0.329824148961   
      0.329109274103   0.328516514233   0.328050561806   0.327715094773   0.327512754345   
      0.327445130578   0.327512754345   0.327715094773   0.328050561806   0.328516514233   
      0.329109274103   0.329824148961   0.330655463644   0.331596603456   0.332640070381   
      0.33377755352   0.335000014277   0.336297785934   0.337660686288   0.339078141044   
      0.340539314768   0.342033245527   0.343548978952   0.345075697352   0.346602839767   
      0.348120209407   0.349618065684   0.351087198998   0.352518987411   0.353905435327   
      0.355239195094   0.356513573176   0.357722522981   0.358860626734   0.359923068905   
      0.360905603603   0.361804518215   0.362616595303   0.363339074472   0.363969615638   
      0.364506264795   0.364947423169   0.365291820359   0.365538491928   0.36568676174   
      0.362430181474   0.362380121854   0.362230080705   0.361980473767   0.361632002611   
      0.36118566757   0.360642785662   0.360005013286   0.359274373368   0.358453286452   
      0.357544605067   0.356551650449   0.355478250415   0.354328776903   0.353108181386   
      0.351822026052   0.350476508445   0.349078477068   0.347635435459   0.346155532375   
      0.344647536058   0.343120791089   0.341585157086   0.340050929371   0.338528742731   
      0.337029460429   0.335564051497   0.33414346016   0.33277847167   0.331479579046   
      0.330256854996   0.329119832832   0.328077399382   0.327137701951   0.326308070345   
      0.325594953935   0.325003872895   0.324539382015   0.324205045138   0.324003418077   
      0.323936038059   0.324003418077   0.324205045138   0.324539382015   0.325003872895   
      0.325594953935   0.326308070345   0.327137701951   0.328077399382   0.329119832832   
      0.330256854996   0.331479579046   0.33277847167   0.33414346016   0.335564051497   
      0.337029460429   0.338528742731   0.340050929371   0.341585157086   0.343120791089   
      0.344647536058   0.346155532375   0.347635435459   0.349078477068   0.350476508445   
      0.351822026052   0.353108181386   0.354328776903   0.355478250415   0.356551650449   
      0.357544605067   0.358453286452   0.359274373368   0.360005013286   0.360642785662   
      0.36118566757   0.361632002611   0.361980473767   0.362230080705   0.362380121854   
      0.362430181474   0.362380121854   0.362230080705   0.361980473767   0.361632002611   
      0.36118566757   0.360642785662   0.360005013286   0.359274373368   0.358453286452   
      0.357544605067   0.356551650449   0.355478250415   0.354328776903   0.353108181386   
      0.351822026052   0.350476508445   0.349078477068   0.347635435459   0.346155532375   
      0.344647536058   0.343120791089   0.341585157086   0.340050929371   0.338528742731   
      0.337029460429   0.335564051497   0.33414346016   0.33277847167   0.331479579046   
      0.330256854996   0.329119832832   0.328077399382   0.327137701951   0.326308070345   
      0.325594953935   0.325003872895   0.324539382015   0.324205045138   0.324003418077   
      0.323936038059   0.324003418077   0.324205045138   0.324539382015   0.325003872895   
      0.325594953935   0.326308070345   0.327137701951   0.328077399382   0.329119832832   
      0.330256854996   0.331479579046   0.33277847167   0.33414346016   0.335564051497   
      0.337029460429   0.338528742731   0.340050929371   0.341585157086   0.343120791089   
      0.344647536058   0.346155532375   0.347635435459   0.349078477068   0.350476508445   
      0.351822026052   0.353108181386   0.354328776903   0.355478250415   0.356551650449   
      0.357544605067   0.358453286452   0.359274373368   0.360005013286   0.360642785662   
      0.36118566757   0.361632002611   0.361980473767   0.362230080705   0.362380121854   
      0.365736229233   0.36568676174   0.365538491928   0.365291820359   0.364947423169   
      0.364506264795   0.363969615638   0.363339074472   0.362616595303   0.361804518215   
      0.360905603603   0.359923068905   0.358860626734   0.357722522981   0.356513573176   
      0.355239195094   0.353905435327   0.352518987411   0.351087198998   0.349618065684   
      0.348120209407   0.346602839767   0.345075697352   0.343548978952   0.342033245527   
      0.340539314768   0.339078141044   0.337660686288   0.336297785934   0.335000014277   
      0.33377755352   0.332640070381   0.331596603456   0.330655463644   0.329824148961   
      0.329109274103   0.328516514233   0.328050561806   0.327715094773   0.327512754345   
      0.327445130578   0.327512754345   0.327715094773   0.328050561806   0.328516514233   
      0.329109274103   0.329824148961   0.330655463644   0.331596603456   0.332640070381   
      0.33377755352   0.335000014277   0.336297785934   0.337660686288   0.339078141044   
      0.340539314768   0.342033245527   0.343548978952   0.345075697352   0.346602839767   
      0.348120209407   0.349618065684   0.351087198998   0.352518987411   0.353905435327   
      0.355239195094   0.356513573176   0.357722522981   0.358860626734   0.359923068905   
      0.360905603603   0.361804518215   0.362616595303   0.363339074472   0.363969615638   
      0.364506264795   0.364947423169   0.365291820359   0.365538491928   0.36568676174   
      0.372535727506   0.372487583927   0.372343275918   0.372103174134   0.371767904571   
      0.37133836088   0.370815721489   0.370201471388   0.36949742835   0.368705773203   
      0.367829083638   0.366870370797   0.365833117666   0.364721317997   0.36353951419   
      0.362292832277   0.360987011871   0.359628428748   0.3582241076   0.35678172256   
      0.355309583266   0.353816604617   0.352312258972   0.35080651024   0.349309730248   
      0.347832598658   0.346385988672   0.344980841586   0.343628033892   0.342338241014   
      0.341121801858   0.339988588152   0.338947882032   0.338008264655   0.337177517763   
      0.33646253922   0.335869272776   0.335402651547   0.335066554277   0.33486377315   
      0.334795991901   0.33486377315   0.335066554277   0.335402651547   0.335869272776   
      0.33646253922   0.337177517763   0.338008264655   0.338947882032   0.339988588152   
      0.341121801858   0.342338241014   0.343628033892   0.344980841586   0.346385988672   
      0.347832598658   0.349309730248   0.35080651024   0.352312258972   0.353816604617   
      0.355309583266   0.35678172256   0.3582241076   0.359628428748   0.360987011871   
      0.362292832277   0.36353951419   0.364721317997   0.365833117666   0.366870370797   
      0.367829083638   0.368705773203   0.36949742835   0.370201471388   0.370815721489   
      0.37133836088   0.371767904571   0.372103174134   0.372343275918   0.372487583927   
      0.38312309049   0.38307727658   0.382939943046   0.382711416815   0.382392250543   
      0.381983234267   0.381485411646   0.380900100724   0.380228919028   0.379473812749   
      0.378637089605   0.377721454776   0.376730049129   0.375666488642   0.374534903687   
      0.373339976534   0.372086975124   0.370781780967   0.369430908806   0.368041515657   
      0.366621396904   0.365178967367   0.363723225718   0.36226370117   0.360810382176   
      0.359373627676   0.357964062364   0.356592458281   0.355269605794   0.354006177565   
      0.352812589434   0.351698862188   0.350674487948   0.349748304471   0.34892838006   
      0.348221911017   0.347635132904   0.347173246169   0.346840356206   0.346639427527   
      0.346572251553   0.346639427527   0.346840356206   0.347173246169   0.347635132904   
      0.348221911017   0.34892838006   0.349748304471   0.350674487948   0.351698862188   
      0.352812589434   0.354006177565   0.355269605794   0.356592458281   0.357964062364   
      0.359373627676   0.360810382176   0.36226370117   0.363723225718   0.365178967367   
      0.366621396904   0.368041515657   0.369430908806   0.370781780967   0.372086975124   
      0.373339976534   0.374534903687   0.375666488642   0.376730049129   0.377721454776   
      0.378637089605   0.379473812749   0.380228919028   0.380900100724   0.381485411646   
      0.381983234267   0.382392250543   0.382711416815   0.382939943046   0.38307727658   
      0.397773994913   0.397731887093   0.397605653391   0.397395565213   0.39710208202   
      0.396725861998   0.396267776992   0.395728931676   0.395110686857   0.394414686773   
      0.393642890107   0.392797604285   0.391881522481   0.39089776246   0.389849906194   
      0.388742038873   0.387578785645   0.386365344181   0.38510751091   0.383811698638   
      0.382484943232   0.381134897146   0.379769807817   0.378398479413   0.377030216958   
      0.375674752618   0.374342154704   0.37304272081   0.371786857296   0.370584947997   
      0.36944721562   0.368383579557   0.367403513966   0.366515909851   0.365728944518   
      0.365049961345   0.364485362253   0.364040514676   0.363719674322   0.363525924545   
      0.363461132818   0.363525924545   0.363719674322   0.364040514676   0.364485362253   
      0.365049961345   0.365728944518   0.366515909851   0.367403513966   0.368383579557   
      0.36944721562   0.370584947997   0.371786857296   0.37304272081   0.374342154704   
      0.375674752618   0.377030216958   0.378398479413   0.379769807817   0.381134897146   
      0.382484943232   0.383811698638   0.38510751091   0.386365344181   0.387578785645   
      0.388742038873   0.389849906194   0.39089776246   0.391881522481   0.392797604285   
      0.393642890107   0.394414686773   0.395110686857   0.395728931676   0.396267776992   
      0.396725861998   0.39710208202   0.397395565213   0.397605653391   0.397731887093   
      0.416439627128   0.416402844111   0.416292564213   0.416108996752   0.415852496774   