<?xml version="1.0"?>
<VTKFile type="ImageData" version="0.1" byte_order="LittleEndian">
  <ImageData WholeExtent="0 79 0 19 0 19" Origin="0 0 0" Spacing="1 1 1">
  <Piece Extent="0 79 0 19 0 19">
    <PointData Scalars="density">
       <DataArray type="Float32" Name="bluedensity" NumberOfComponents="1" format="ascii">
      0   0   0   0   0   
      0   0   0   0   0   
      0   0   0   0   0   
      0   0   0   0   0   
      0   0   0   0   0   
      0   0   0   0   0   
      0   0   0   0   0   
      0   0   0   0   0   
      0   0   0   0   0   
      0   0   0   0   0   
      0   0   0   0   0   
      0   0   0   0   0   
      0   0   0   0   0   
      0   0   0   0   0   
      0   0   0   0   0   
      0   0   0   0   0   
      0   0   0   0   0   
      0   0   0   0   0   
      0   0   0   0   0   
      0   0   0   0   0   
      0   0   0   0   0   
      0   0   0   0   0   
      0   0   0   0   0   
      0   0   0   0   0   
      0   0   0   0   0   
      0   0   0   0   0   
      0   0   0   0   0   
      0   0   0   0   0   
      0   0   0   0   0   
      0   0   0   0   0   
      0   0   0   0   0   
      0   0   0   0   0   
      0   0   0   0   0   
      0   0   0   0   0   
      0   0   0   0   0   
      0   0   0   0   0   
      0   0   0   0   0   
      0   0   0   0   0   
      0   0   0   0   0   
      0   0   0   0   0   
      0   0   0   0   0   
      0   0   0   0   0   
      0   0   0   0   0   
      0   0   0   0   0   
      0   0   0   0   0   
      0   0   0   0   0   
      0   0   0   0   0   
      0   0   0   0   0   
      0   0   0   0   0   
      0   0   0   0   0   
      0   0   0   0   0   
      0   0   0   0   0   
      0   0   0   0   0   
      0   0   0   0   0   
      0   0   0   0   0   
      0   0   0   0   0   
      0   0   0   0   0   
      0   0   0   0   0   
      0   0   0   0   0   
      0   0   0   0   0   
      0   0   0   0   0   
      0   0   0   0   0   
      0   0   0   0   0   
      0   0   0   0   0   
      0   0   0   0   0   
      0   0   0   0   0   
      0   0   0   0   0   
      0   0   0   0   0   
      0   0   0   0   0   
      0   0   0   0   0   
      0   0   0   0   0   
      0   0   0   0   0   
      0   0   0   0   0   
      0   0   0   0   0   
      0   0   0   0   0   
      0   0   0   0   0   
      0   0   0   0   0   
      0   0   0   0   0   
      0   0   0   0   0   
      0   0   0   0   0   
      0   0   0   0   0   
      0   0   0   0   0   
      0   0   0   0   0   
      0   0   0   0   0   
      0   0   0   0   0   
      0   0   0   0   0   
      0   0   0   0   0   
      0   0   0   0   0   
      0   0   0   0   0   
      0   0   0   0   0   
      0   0   0   0   0   
      0   0   0   0   0   
      0   0   0   0   0   
      0   0   0   0   0   
      0   0   0   0   0   
      0   0   0   0   0   
      0   0   0   0   0   
      0   0   0   0   0   
      0   0   0   0   0   
      0   0   0   0   0   
      0   0   0   0   0   
      0   0   0   0   0   
      0   0   0   0   0   
      0   0   0   0   0   
      0   0   0   0   0   
      0   0   0   0   0   
      0   0   0   0   0   
      0   0   0   0   0   
      0   0   0   0   0   
      0   0   0   0   0   
      0   0   0   0   0   
      0   0   0   0   0   
      0   0   0   0   0   
      0   0   0   0   0   
      0   0   0   0   0   
      0   0   0   0   0   
      0   0   0   0   0   
      0   0   0   0   0   
      0   0   0   0   0   
      0   0   0   0   0   
      0   0   0   0   0   
      0   0   0   0   0   
      0   0   0   0   0   
      0   0   0   0   0   
      0   0   0   0   0   
      0   0   0   0   0   
      0   0   0   0   0   
      0   0   0   0   0   
      0   0   0   0   0   
      0   0   0   0   0   
      0   0   0   0   0   
      0   0   0   0   0   
      0   0   0   0   0   
      0   0   0   0   0   
      0   0   0   0   0   
      0   0   0   0   0   
      0   0   0   0   0   
      0   0   0   0   0   
      0   0   0   0   0   
      0   0   0   0   0   
      0   0   0   0   0   
      0   0   0   0   0   
      0   0   0   0   0   
      0   0   0   0   0   
      0   0   0   0   0   
      0   0   0   0   0   
      0   0   0   0   0   
      0   0   0   0   0   
      0   0   0   0   0   
      0   0   0   0   0   
      0   0   0   0   0   
      0   0   0   0   0   
      0   0   0   0   0   
      0   0   0   0   0   
      0   0   0   0   0   
      0   0   0   0   0   
      0   0   0   0   0   
      0   0   0   0   0   
      0   0   0   0   0   
      0   0   0   0   0   
      0   0   0   0   0   
      0   0   0   0   0   
      0   0   0   0   0   
      0   0   0   0   0   
      0   0   0   0   0   
      0   0   0   0   0   
      0   0   0   0   0   
      0   0   0   0   0   
      0   0   0   0   0   
      0   0   0   0   0   
      0   0   0   0   0   
      0   0   0   0   0   
      0   0   0   0   0   
      0   0   0   0   0   
      0   0   0   0   0   
      0   0   0   0   0   
      0   0   0   0   0   
      0   0   0   0   0   
      0   0   0   0   0   
      0   0   0   0   0   
      0   0   0   0   0   
      0   0   0   0   0   
      0   0   0   0   0   
      0   0   0   0   0   
      0   0   0   0   0   
      0   0   0   0   0   
      0   0   0   0   0   
      0   0   0   0   0   
      0   0   0   0   0   
      0   0   0   0   0   
      0   0   0   0   0   
      0   0   0   0   0   
      0   0   0   0   0   
      0   0   0   0   0   
      0   0   0   0   0   
      0   0   0   0   0   
      0   0   0   0   0   
      0   0   0   0   0   
      0   0   0   0   0   
      0   0   0   0   0   
      0   0   0   0   0   
      0   0   0   0   0   
      0   0   0   0   0   
      0   0   0   0   0   
      0   0   0   0   0   
      0   0   0   0   0   
      0   0   0   0   0   
      0   0   0   0   0   
      0   0   0   0   0   
      0   0   0   0   0   
      0   0   0   0   0   
      0   0   0   0   0   
      0   0   0   0   0   
      0   0   0   0   0   
      0   0   0   0   0   
      0   0   0   0   0   
      0   0   0   0   0   
      0   0   0   0   0   
      0   0   0   0   0   
      0   0   0   0   0   
      0   0   0   0   0   
      0   0   0   0   0   
      0   0   0   0   0   
      0   0   0   0   0   
      0   0   0   0   0   
      0   0   0   0   0   
      0   0   0   0   0   
      0   0   0   0   0   
      0   0   0   0   0   
      0   0   0   0   0   
      0   0   0   0   0   
      0   0   0   0   0   
      0   0   0   0   0   
      0   0   0   0   0   
      0   0   0   0   0   
      0   0   0   0   0   
      0   0   0   0   0   
      0   0   0   0   0   
      0   0   0   0   0   
      0   0   0   0   0   
      0   0   0   0   0   
      0   0   0   0   0   
      0   0   0   0   0   
      0   0   0   0   0   
      0   0   0   0   0   
      0   0   0   0   0   
      0   0   0   0   0   
      0   0   0   0   0   
      0   0   0   0   0   
      0   0   0   0   0   
      0   0   0   0   0   
      0   0   0   0   0   
      0   0   0   0   0   
      0   0   0   0   0   
      0   0   0   0   0   
      0   0   0   0   0   
      0   0   0   0   0   
      0   0   0   0   0   
      0   0   0   0   0   
      0   0   0   0   0   
      0   0   0   0   0   
      0   0   0   0   0   
      0   0   0   0   0   
      0   0   0   0   0   
      0   0   0   0   0   
      0   0   0   0   0   
      0   0   0   0   0   
      0   0   0   0   0   
      0   0   0   0   0   
      0   0   0   0   0   
      0   0   0   0   0   
      0   0   0   0   0   
      0   0   0   0   0   
      0   0   0   0   0   
      0   0   0   0   0   
      0   0   0   0   0   
      0   0   0   0   0   
      0   0   0   0   0   
      0   0   0   0   0   
      0   0   0   0   0   
      0   0   0   0   0   
      0   0   0   0   0   
      0   0   0   0   0   
      0   0   0   0   0   
      0   0   0   0   0   
      0   0   0   0   0   
      0   0   0   0   0   
      0   0   0   0   0   
      0   0   0   0   0   
      0   0   0   0   0   
      0   0   0   0   0   
      0   0   0   0   0   
      0   0   0   0   0   
      0   0   0   0   0   
      0   0   0   0   0   
      0   0   0   0   0   
      0   0   0   0   0   
      0   0   0   0   0   
      0   0   0   0   0   
      0   0   0   0   0   
      0   0   0   0   0   
      0   0   0   0   0   
      0   0   0   0   0   
      0   0   0   0   0   
      0   0   0   0   0   
      0   0   0   0   0   
      0   0   0   0   0   
      0   0   0   0   0   
      0   0   0   0   0   
      0   0   0   0   0   
      0   0   0   0   0   
      0   0   0   0   0   
      0   0   0   0   0   
      0   0   0   0   0   
      0   0   0   0   0   
      0   0   0   0   0   
      0   0   0   0   0   
      0   0   0   0   0   
      0   0   0   0   0   
      0   0   0   0   0   
      0   0   0   0   0   
      0   0   0   0   0   
      0   0   0   0   0   
      0   0   0   0   0   
      0   0   0   0   0   
      0   0   0   0   0   
      0   0   0   0   0   
      0   0   0   0   0   
      0   0   0   0   0   
      0   0   0   0   0   
      0   0   0   0   0   
      0   0   0   0   0   
      0   0   0   0   0   
      0   0   0   0   0   
      0   0   0   0   0   
      0   0   0   0   0   
      0.573645986834   0.573633306132   0.573595297934   0.573532064431   0.573443777485   
      0.573330680939   0.573193093831   0.573031414494   0.572846125508   0.572637799453   
      0.572407105399   0.572154816031   0.571881815293   0.571589106369   0.571277819817   
      0.570949221588   0.570604720622   0.570245875688   0.569874401047   0.569492170503   
      0.569101219366   0.56870374384   0.568302097339   0.567898783273   0.567496443895   
      0.567097844878   0.566705855407   0.566323423707   0.565953548104   0.565599243869   
      0.565263506334   0.564949270916   0.564659370899   0.564396493975   0.564163138675   
      0.563961571913   0.563793788905   0.563661476704   0.563565982522   0.563508287906   
      0.563488989621   0.563508287906   0.563565982522   0.563661476704   0.563793788905   
      0.563961571913   0.564163138675   0.564396493975   0.564659370899   0.564949270916   
      0.565263506334   0.565599243869   0.565953548104   0.566323423707   0.566705855407   
      0.567097844878   0.567496443895   0.567898783273   0.568302097339   0.56870374384   
      0.569101219366   0.569492170503   0.569874401047   0.570245875688   0.570604720622   
      0.570949221588   0.571277819817   0.571589106369   0.571881815293   0.572154816031   
      0.572407105399   0.572637799453   0.572846125508   0.573031414494   0.573193093831   
      0.573330680939   0.573443777485   0.573532064431   0.573595297934   0.573633306132   
      0.461954379853   0.461936794804   0.461884086061   0.461796393523   0.461673952639   
      0.461517097814   0.461326267153   0.461102008494   0.460844986671   0.460555991942   
      0.460235949438   0.459885929516   0.459507158778   0.459101031534   0.458669121372   
      0.45821319246   0.457735210134   0.457237350256   0.456722006755   0.456191796737   
      0.455649562498   0.455098369771   0.454541501553   0.453982446917   0.453424884301   
      0.452872658881   0.452329753824   0.451800255394   0.451288312132   0.45079808855   
      0.450333714054   0.449899228054   0.449498522412   0.449135282623   0.448812929212   
      0.448534560966   0.448302901607   0.448120251504   0.447988445887   0.447908820879   
      0.447882188418   0.447908820879   0.447988445887   0.448120251504   0.448302901607   
      0.448534560966   0.448812929212   0.449135282623   0.449498522412   0.449899228054   
      0.450333714054   0.45079808855   0.451288312132   0.451800255394   0.452329753824   
      0.452872658881   0.453424884301   0.453982446917   0.454541501553   0.455098369771   
      0.455649562498   0.456191796737   0.456722006755   0.457237350256   0.457735210134   
      0.45821319246   0.458669121372   0.459101031534   0.459507158778   0.459885929516   
      0.460235949438   0.460555991942   0.460844986671   0.461102008494   0.461326267153   
      0.461517097814   0.461673952639   0.461796393523   0.461884086061   0.461936794804   
      0.437201186124   0.437178425571   0.437110206897   0.436996719945   0.436838284066   
      0.436635352505   0.436388518488   0.43609852294   0.435766263738   0.435392806363   
      0.434979395793   0.434527469377   0.434038670433   0.433514862174   0.432958141549   
      0.432370852468   0.431755597816   0.431115249582   0.430452956378   0.429772147547   
      0.4290765331   0.428370098653   0.427657094664   0.426942019319   0.42622959455   
      0.425524734881   0.424832508985   0.424158094106   0.423506723764   0.422883629439   
      0.422293977235   0.42174280072   0.421234931427   0.420774928627   0.420367010102   
      0.420014985725   0.419722195596   0.419491454447   0.419325003829   0.419224473448   
      0.419190852734   0.419224473448   0.419325003829   0.419491454447   0.419722195596   
      0.420014985725   0.420367010102   0.420774928627   0.421234931427   0.42174280072   
      0.422293977235   0.422883629439   0.423506723764   0.424158094106   0.424832508985   
      0.425524734881   0.42622959455   0.426942019319   0.427657094664   0.428370098653   
      0.4290765331   0.429772147547   0.430452956378   0.431115249582   0.431755597816   
      0.432370852468   0.432958141549   0.433514862174   0.434038670433   0.434527469377   
      0.434979395793   0.435392806363   0.435766263738   0.43609852294   0.436388518488   
      0.436635352505   0.436838284066   0.436996719945   0.437110206897   0.437178425571   
      0.412691267683   0.412663347068   0.412579667879   0.412440479138   0.412246199385   
      0.411997421887   0.411694921838   0.411339665441   0.410932820741   0.410475769991   
      0.409970123331   0.40941773342   0.408820710656   0.408181438479   0.407502588198   
      0.406787132676   0.406038358137   0.405259873275   0.404455614814   0.403629848612   
      0.40278716545   0.401932470672   0.401070966944   0.400208129565   0.399349673922   
      0.398501514957   0.397669718745   0.396860446603   0.396079892427   0.395334214243   
      0.394629461245   0.393971497774   0.393365925903   0.392818008369   0.392332593668   
      0.391914045067   0.391566175267   0.391292188248   0.391094629708   0.390975347253   
      0.390935461283   0.390975347253   0.391094629708   0.391292188248   0.391566175267   
      0.391914045067   0.392332593668   0.392818008369   0.393365925903   0.393971497774   
      0.394629461245   0.395334214243   0.396079892427   0.396860446603   0.397669718745   
      0.398501514957   0.399349673922   0.400208129565   0.401070966944   0.401932470672   
      0.40278716545   0.403629848612   0.404455614814   0.405259873275   0.406038358137   
      0.406787132676   0.407502588198   0.408181438479   0.408820710656   0.40941773342   
      0.409970123331   0.410475769991   0.410932820741   0.411339665441   0.411694921838   
      0.411997421887   0.412246199385   0.412440479138   0.412579667879   0.412663347068   
      0.393462262559   0.39343044226   0.393335082301   0.39317648665   0.392955165743   
      0.392671842158   0.392327458425   0.391923186821   0.391460440972   0.390940888988   
      0.390366467803   0.389739398313   0.389062200815   0.388337710148   0.387569089864   
      0.386759844644   0.385913830133   0.385035259273   0.384128704207   0.383199092849   
      0.382251699223   0.381292126831   0.3803262844   0.379360353615   0.378400748652   
      0.377454067608   0.376527036248   0.375626444753   0.374759078473   0.373931643938   
      0.373150691572   0.372422536734   0.371753180774   0.371148233808   0.370612840887   
      0.370151613101   0.369768565044   0.369467059854   0.369249762889   0.369118604845   
      0.369074754975   0.369118604845   0.369249762889   0.369467059854   0.369768565044   
      0.370151613101   0.370612840887   0.371148233808   0.371753180774   0.372422536734   
      0.373150691572   0.373931643938   0.374759078473   0.375626444753   0.376527036248   
      0.377454067608   0.378400748652   0.379360353615   0.3803262844   0.381292126831   
      0.382251699223   0.383199092849   0.384128704207   0.385035259273   0.385913830133   
      0.386759844644   0.387569089864   0.388337710148   0.389062200815   0.389739398313   
      0.390366467803   0.390940888988   0.391460440972   0.391923186821   0.392327458425   
      0.392671842158   0.392955165743   0.39317648665   0.393335082301   0.39343044226   
      0.378418920453   0.378384441922   0.378281122434   0.378109311508   0.377869595646   
      0.377562804219   0.377190017523   0.37675257684   0.376252096252   0.375690475891   
      0.375069916219   0.374392932861   0.37366237139   0.372881421395   0.372053629061   
      0.371182907407   0.370273543262   0.369330200047   0.368357915404   0.367362092776   
      0.366348486133   0.365323177195   0.364292544683   0.363263225403   0.362242067237   
      0.361236074407   0.360252345727   0.359298006795   0.358380137394   0.357505695524   
      0.356681439661   0.355913850878   0.35520905647   0.35457275663   0.354010155596   
      0.353525898508   0.353124014993   0.352807870332   0.352580124804   0.352442701688   
      0.352396764219   0.352442701688   0.352580124804   0.352807870332   0.353124014993   
      0.353525898508   0.354010155596   0.35457275663   0.35520905647   0.355913850878   
      0.356681439661   0.357505695524   0.358380137394   0.359298006795   0.360252345727   
      0.361236074407   0.362242067237   0.363263225403   0.364292544683   0.365323177195   
      0.366348486133   0.367362092776   0.368357915404   0.369330200047   0.370273543262   
      0.371182907407   0.372053629061   0.372881421395   0.37366237139   0.374392932861   
      0.375069916219   0.375690475891   0.376252096252   0.37675257684   0.377190017523   
      0.377562804219   0.377869595646   0.378109311508   0.378281122434   0.378384441922   
      0.367584775181   0.367548666271   0.36744046697   0.367260560782   0.367009590903   
      0.366688466157   0.366298369099   0.365840766079   0.365317418969   0.364730398192   
      0.364082096587   0.363375243561   0.362612918877   0.361798565326   0.36093599945   
      0.360029419418   0.359083409099   0.358102937373   0.357093351744   0.35606036542   
      0.355010037134   0.353948743181   0.352883141403   0.351820127104   0.350766781216   
      0.349730311329   0.348717986534   0.347737067268   0.346794731587   0.345897999437   
      0.345053656556   0.344268179615   0.343547664139   0.342897756552   0.342323591499   
      0.341829735375   0.341420136717   0.341098083929   0.340866170596   0.340726268505   
      0.340679508409   0.340726268505   0.340866170596   0.341098083929   0.341420136717   
      0.341829735375   0.342323591499   0.342897756552   0.343547664139   0.344268179615   
      0.345053656556   0.345897999437   0.346794731587   0.347737067268   0.348717986534   
      0.349730311329   0.350766781216   0.351820127104   0.352883141403   0.353948743181   
      0.355010037134   0.35606036542   0.357093351744   0.358102937373   0.359083409099   
      0.360029419418   0.36093599945   0.361798565326   0.362612918877   0.363375243561   
      0.364082096587   0.364730398192   0.365317418969   0.365840766079   0.366298369099   
      0.366688466157   0.367009590903   0.367260560782   0.36744046697   0.367548666271   
      0.360645115947   0.360608103902   0.360497202664   0.360312818148   0.360055630899   
      0.359726602025   0.359326981257   0.358858316921   0.358322467492   0.357721614324   
      0.357058275055   0.356335317093   0.355555970483   0.35472383935   0.353842911074   
      0.35291756223   0.351952560349   0.350953060532   0.349924596018   0.3488730619   
      0.347804691369   0.346726024071   0.345643866425   0.344565244072   0.343497346932   
      0.342447467679   0.341422934728   0.340431041094   0.339478970647   0.338573723402   
      0.337722041493   0.336930337387   0.336204625757   0.33555046022   0.334972875859   
      0.334476338217   0.334064699166   0.333741159827   0.333508240556   0.333367757864   
      0.333320808124   0.333367757864   0.333508240556   0.333741159827   0.334064699166   
      0.334476338217   0.334972875859   0.33555046022   0.336204625757   0.336930337387   
      0.337722041493   0.338573723402   0.339478970647   0.340431041094   0.341422934728   
      0.342447467679   0.343497346932   0.344565244072   0.345643866425   0.346726024071   
      0.347804691369   0.3488730619   0.349924596018   0.350953060532   0.351952560349   
      0.35291756223   0.353842911074   0.35472383935   0.355555970483   0.356335317093   
      0.357058275055   0.357721614324   0.358322467492   0.358858316921   0.359326981257   
      0.359726602025   0.360055630899   0.360312818148   0.360497202664   0.360608103902   
      0.357276447416   0.357239039767   0.357126955426   0.356940611431   0.356680706863   
      0.356348228746   0.355944460083   0.355470989739   0.354929723878   0.354322898494   
      0.35365309253   0.352923240963   0.352136647125   0.351296993452   0.350408349774   
      0.34947517818   0.348502333512   0.347495058513   0.346458972754   0.345400054574   
      0.344324615447   0.343239266433   0.342150876635   0.341066523926   0.339993438494   
      0.338938940138   0.337910370474   0.336915021484   0.335960062   0.335052463771   
      0.334198928763   0.333405819223   0.332679091855   0.332024237206   0.331446225102   
      0.33094945665   0.330537723091   0.330214171548   0.329981277512   0.329840823868   
      0.329793886161   0.329840823868   0.329981277512   0.330214171548   0.330537723091   
      0.33094945665   0.331446225102   0.332024237206   0.332679091855   0.333405819223   
      0.334198928763   0.335052463771   0.335960062   0.336915021484   0.337910370474   
      0.338938940138   0.339993438494   0.341066523926   0.342150876635   0.343239266433   
      0.344324615447   0.345400054574   0.346458972754   0.347495058513   0.348502333512   
      0.34947517818   0.350408349774   0.351296993452   0.352136647125   0.352923240963   
      0.35365309253   0.354322898494   0.354929723878   0.355470989739   0.355944460083   
      0.356348228746   0.356680706863   0.356940611431   0.357126955426   0.357239039767   
      0.357276447416   0.357239039767   0.357126955426   0.356940611431   0.356680706863   
      0.356348228746   0.355944460083   0.355470989739   0.354929723878   0.354322898494   
      0.35365309253   0.352923240963   0.352136647125   0.351296993452   0.350408349774   
      0.34947517818   0.348502333512   0.347495058513   0.346458972754   0.345400054574   
      0.344324615447   0.343239266433   0.342150876635   0.341066523926   0.339993438494   
      0.338938940138   0.337910370474   0.336915021484   0.335960062   0.335052463771   
      0.334198928763   0.333405819223   0.332679091855   0.332024237206   0.331446225102   
      0.33094945665   0.330537723091   0.330214171548   0.329981277512   0.329840823868   
      0.329793886161   0.329840823868   0.329981277512   0.330214171548   0.330537723091   
      0.33094945665   0.331446225102   0.332024237206   0.332679091855   0.333405819223   
      0.334198928763   0.335052463771   0.335960062   0.336915021484   0.337910370474   
      0.338938940138   0.339993438494   0.341066523926   0.342150876635   0.343239266433   
      0.344324615447   0.345400054574   0.346458972754   0.347495058513   0.348502333512   
      0.34947517818   0.350408349774   0.351296993452   0.352136647125   0.352923240963   
      0.35365309253   0.354322898494   0.354929723878   0.355470989739   0.355944460083   
      0.356348228746   0.356680706863   0.356940611431   0.357126955426   0.357239039767   
      0.360645115947   0.360608103902   0.360497202664   0.360312818148   0.360055630899   
      0.359726602025   0.359326981257   0.358858316921   0.358322467492   0.357721614324   
      0.357058275055   0.356335317093   0.355555970483   0.35472383935   0.353842911074   
      0.35291756223   0.351952560349   0.350953060532   0.349924596018   0.3488730619   
      0.347804691369   0.346726024071   0.345643866425   0.344565244072   0.343497346932   
      0.342447467679   0.341422934728   0.340431041094   0.339478970647   0.338573723402   
      0.337722041493   0.336930337387   0.336204625757   0.33555046022   0.334972875859   
      0.334476338217   0.334064699166   0.333741159827   0.333508240556   0.333367757864   
      0.333320808124   0.333367757864   0.333508240556   0.333741159827   0.334064699166   
      0.334476338217   0.334972875859   0.33555046022   0.336204625757   0.336930337387   
      0.337722041493   0.338573723402   0.339478970647   0.340431041094   0.341422934728   
      0.342447467679   0.343497346932   0.344565244072   0.345643866425   0.346726024071   
      0.347804691369   0.3488730619   0.349924596018   0.350953060532   0.351952560349   
      0.35291756223   0.353842911074   0.35472383935   0.355555970483   0.356335317093   
      0.357058275055   0.357721614324   0.358322467492   0.358858316921   0.359326981257   
      0.359726602025   0.360055630899   0.360312818148   0.360497202664   0.360608103902   
      0.367584775181   0.367548666271   0.36744046697   0.367260560782   0.367009590903   
      0.366688466157   0.366298369099   0.365840766079   0.365317418969   0.364730398192   
      0.364082096587   0.363375243561   0.362612918877   0.361798565326   0.36093599945   
      0.360029419418   0.359083409099   0.358102937373   0.357093351744   0.35606036542   
      0.355010037134   0.353948743181   0.352883141403   0.351820127104   0.350766781216   
      0.349730311329   0.348717986534   0.347737067268   0.346794731587   0.345897999437   
      0.345053656556   0.344268179615   0.343547664139   0.342897756552   0.342323591499   
      0.341829735375   0.341420136717   0.341098083929   0.340866170596   0.340726268505   
      0.340679508409   0.340726268505   0.340866170596   0.341098083929   0.341420136717   
      0.341829735375   0.342323591499   0.342897756552   0.343547664139   0.344268179615   
      0.345053656556   0.345897999437   0.346794731587   0.347737067268   0.348717986534   
      0.349730311329   0.350766781216   0.351820127104   0.352883141403   0.353948743181   
      0.355010037134   0.35606036542   0.357093351744   0.358102937373   0.359083409099   
      0.360029419418   0.36093599945   0.361798565326   0.362612918877   0.363375243561   
      0.364082096587   0.364730398192   0.365317418969   0.365840766079   0.366298369099   
      0.366688466157   0.367009590903   0.367260560782   0.36744046697   0.367548666271   
      0.378418920453   0.378384441922   0.378281122434   0.378109311508   0.377869595646   
      0.377562804219   0.377190017523   0.37675257684   0.376252096252   0.375690475891   
      0.375069916219   0.374392932861   0.37366237139   0.372881421395   0.372053629061   
      0.371182907407   0.370273543262   0.369330200047   0.368357915404   0.367362092776   
      0.366348486133   0.365323177195   0.364292544683   0.363263225403   0.362242067237   
      0.361236074407   0.360252345727   0.359298006795   0.358380137394   0.357505695524   
      0.356681439661   0.355913850878   0.35520905647   0.35457275663   0.354010155596   
      0.353525898508   0.353124014993   0.352807870332   0.352580124804   0.352442701688   
      0.352396764219   0.352442701688   0.352580124804   0.352807870332   0.353124014993   
      0.353525898508   0.354010155596   0.35457275663   0.35520905647   0.355913850878   
      0.356681439661   0.357505695524   0.358380137394   0.359298006795   0.360252345727   
      0.361236074407   0.362242067237   0.363263225403   0.364292544683   0.365323177195   
      0.366348486133   0.367362092776   0.368357915404   0.369330200047   0.370273543262   
      0.371182907407   0.372053629061   0.372881421395   0.37366237139   0.374392932861   
      0.375069916219   0.375690475891   0.376252096252   0.37675257684   0.377190017523   
      0.377562804219   0.377869595646   0.378109311508   0.378281122434   0.378384441922   
      0.393462262559   0.39343044226   0.393335082301   0.39317648665   0.392955165743   
      0.392671842158   0.392327458425   0.391923186821   0.391460440972   0.390940888988   
      0.390366467803   0.389739398313   0.389062200815   0.388337710148   0.387569089864   
      0.386759844644   0.385913830133   0.385035259273   0.384128704207   0.383199092849   
      0.382251699223   0.381292126831   0.3803262844   0.379360353615   0.378400748652   
      0.377454067608   0.376527036248   0.375626444753   0.374759078473   0.373931643938   
      0.373150691572   0.372422536734   0.371753180774   0.371148233808   0.370612840887   
      0.370151613101   0.369768565044   0.369467059854   0.369249762889   0.369118604845   
      0.369074754975   0.369118604845   0.369249762889   0.369467059854   0.369768565044   
      0.370151613101   0.370612840887   0.371148233808   0.371753180774   0.372422536734   
      0.373150691572   0.373931643938   0.374759078473   0.375626444753   0.376527036248   
      0.377454067608   0.378400748652   0.379360353615   0.3803262844   0.381292126831   
      0.382251699223   0.383199092849   0.384128704207   0.385035259273   0.385913830133   
      0.386759844644   0.387569089864   0.388337710148   0.389062200815   0.389739398313   
      0.390366467803   0.390940888988   0.391460440972   0.391923186821   0.392327458425   
      0.392671842158   0.392955165743   0.39317648665   0.393335082301   0.39343044226   
      0.412691267683   0.412663347068   0.412579667879   0.412440479138   0.412246199385   