<?xml version="1.0"?>
<VTKFile type="ImageData" version="0.1" byte_order="LittleEndian">
  <ImageData WholeExtent="0 79 0 19 0 19" Origin="0 0 0" Spacing="1 1 1">
  <Piece Extent="0 79 0 19 0 19">
    <PointData Scalars="density">
       <DataArray type="Float32" Name="bluedensity" NumberOfComponents="1" format="ascii">
      0   0   0   0   0   
      0   0   0   0   0   
      0   0   0   0   0   
      0   0   0   0   0   
      0   0   0   0   0   
      0   0   0   0   0   
      0   0   0   0   0   
      0   0   0   0   0   
      0   0   0   0   0   
      0   0   0   0   0   
      0   0   0   0   0   
      0   0   0   0   0   
      0   0   0   0   0   
      0   0   0   0   0   
      0   0   0   0   0   
      0   0   0   0   0   
      0   0   0   0   0   
      0   0   0   0   0   
      0   0   0   0   0   
      0   0   0   0   0   
      0   0   0   0   0   
      0   0   0   0   0   
      0   0   0   0   0   
      0   0   0   0   0   
      0   0   0   0   0   
      0   0   0   0   0   
      0   0   0   0   0   
      0   0   0   0   0   
      0   0   0   0   0   
      0   0   0   0   0   
      0   0   0   0   0   
      0   0   0   0   0   
      0   0   0   0   0   
      0   0   0   0   0   
      0   0   0   0   0   
      0   0   0   0   0   
      0   0   0   0   0   
      0   0   0   0   0   
      0   0   0   0   0   
      0   0   0   0   0   
      0   0   0   0   0   
      0   0   0   0   0   
      0   0   0   0   0   
      0   0   0   0   0   
      0   0   0   0   0   
      0   0   0   0   0   
      0   0   0   0   0   
      0   0   0   0   0   
      0   0   0   0   0   
      0   0   0   0   0   
      0   0   0   0   0   
      0   0   0   0   0   
      0   0   0   0   0   
      0   0   0   0   0   
      0   0   0   0   0   
      0   0   0   0   0   
      0   0   0   0   0   
      0   0   0   0   0   
      0   0   0   0   0   
      0   0   0   0   0   
      0   0   0   0   0   
      0   0   0   0   0   
      0   0   0   0   0   
      0   0   0   0   0   
      0   0   0   0   0   
      0   0   0   0   0   
      0   0   0   0   0   
      0   0   0   0   0   
      0   0   0   0   0   
      0   0   0   0   0   
      0   0   0   0   0   
      0   0   0   0   0   
      0   0   0   0   0   
      0   0   0   0   0   
      0   0   0   0   0   
      0   0   0   0   0   
      0   0   0   0   0   
      0   0   0   0   0   
      0   0   0   0   0   
      0   0   0   0   0   
      0   0   0   0   0   
      0   0   0   0   0   
      0   0   0   0   0   
      0   0   0   0   0   
      0   0   0   0   0   
      0   0   0   0   0   
      0   0   0   0   0   
      0   0   0   0   0   
      0   0   0   0   0   
      0   0   0   0   0   
      0   0   0   0   0   
      0   0   0   0   0   
      0   0   0   0   0   
      0   0   0   0   0   
      0   0   0   0   0   
      0   0   0   0   0   
      0   0   0   0   0   
      0   0   0   0   0   
      0   0   0   0   0   
      0   0   0   0   0   
      0   0   0   0   0   
      0   0   0   0   0   
      0   0   0   0   0   
      0   0   0   0   0   
      0   0   0   0   0   
      0   0   0   0   0   
      0   0   0   0   0   
      0   0   0   0   0   
      0   0   0   0   0   
      0   0   0   0   0   
      0   0   0   0   0   
      0   0   0   0   0   
      0   0   0   0   0   
      0   0   0   0   0   
      0   0   0   0   0   
      0   0   0   0   0   
      0   0   0   0   0   
      0   0   0   0   0   
      0   0   0   0   0   
      0   0   0   0   0   
      0   0   0   0   0   
      0   0   0   0   0   
      0   0   0   0   0   
      0   0   0   0   0   
      0   0   0   0   0   
      0   0   0   0   0   
      0   0   0   0   0   
      0   0   0   0   0   
      0   0   0   0   0   
      0   0   0   0   0   
      0   0   0   0   0   
      0   0   0   0   0   
      0   0   0   0   0   
      0   0   0   0   0   
      0   0   0   0   0   
      0   0   0   0   0   
      0   0   0   0   0   
      0   0   0   0   0   
      0   0   0   0   0   
      0   0   0   0   0   
      0   0   0   0   0   
      0   0   0   0   0   
      0   0   0   0   0   
      0   0   0   0   0   
      0   0   0   0   0   
      0   0   0   0   0   
      0   0   0   0   0   
      0   0   0   0   0   
      0   0   0   0   0   
      0   0   0   0   0   
      0   0   0   0   0   
      0   0   0   0   0   
      0   0   0   0   0   
      0   0   0   0   0   
      0   0   0   0   0   
      0   0   0   0   0   
      0   0   0   0   0   
      0   0   0   0   0   
      0   0   0   0   0   
      0   0   0   0   0   
      0   0   0   0   0   
      0   0   0   0   0   
      0   0   0   0   0   
      0   0   0   0   0   
      0   0   0   0   0   
      0   0   0   0   0   
      0   0   0   0   0   
      0   0   0   0   0   
      0   0   0   0   0   
      0   0   0   0   0   
      0   0   0   0   0   
      0   0   0   0   0   
      0   0   0   0   0   
      0   0   0   0   0   
      0   0   0   0   0   
      0   0   0   0   0   
      0   0   0   0   0   
      0   0   0   0   0   
      0   0   0   0   0   
      0   0   0   0   0   
      0   0   0   0   0   
      0   0   0   0   0   
      0   0   0   0   0   
      0   0   0   0   0   
      0   0   0   0   0   
      0   0   0   0   0   
      0   0   0   0   0   
      0   0   0   0   0   
      0   0   0   0   0   
      0   0   0   0   0   
      0   0   0   0   0   
      0   0   0   0   0   
      0   0   0   0   0   
      0   0   0   0   0   
      0   0   0   0   0   
      0   0   0   0   0   
      0   0   0   0   0   
      0   0   0   0   0   
      0   0   0   0   0   
      0   0   0   0   0   
      0   0   0   0   0   
      0   0   0   0   0   
      0   0   0   0   0   
      0   0   0   0   0   
      0   0   0   0   0   
      0   0   0   0   0   
      0   0   0   0   0   
      0   0   0   0   0   
      0   0   0   0   0   
      0   0   0   0   0   
      0   0   0   0   0   
      0   0   0   0   0   
      0   0   0   0   0   
      0   0   0   0   0   
      0   0   0   0   0   
      0   0   0   0   0   
      0   0   0   0   0   
      0   0   0   0   0   
      0   0   0   0   0   
      0   0   0   0   0   
      0   0   0   0   0   
      0   0   0   0   0   
      0   0   0   0   0   
      0   0   0   0   0   
      0   0   0   0   0   
      0   0   0   0   0   
      0   0   0   0   0   
      0   0   0   0   0   
      0   0   0   0   0   
      0   0   0   0   0   
      0   0   0   0   0   
      0   0   0   0   0   
      0   0   0   0   0   
      0   0   0   0   0   
      0   0   0   0   0   
      0   0   0   0   0   
      0   0   0   0   0   
      0   0   0   0   0   
      0   0   0   0   0   
      0   0   0   0   0   
      0   0   0   0   0   
      0   0   0   0   0   
      0   0   0   0   0   
      0   0   0   0   0   
      0   0   0   0   0   
      0   0   0   0   0   
      0   0   0   0   0   
      0   0   0   0   0   
      0   0   0   0   0   
      0   0   0   0   0   
      0   0   0   0   0   
      0   0   0   0   0   
      0   0   0   0   0   
      0   0   0   0   0   
      0   0   0   0   0   
      0   0   0   0   0   
      0   0   0   0   0   
      0   0   0   0   0   
      0   0   0   0   0   
      0   0   0   0   0   
      0   0   0   0   0   
      0   0   0   0   0   
      0   0   0   0   0   
      0   0   0   0   0   
      0   0   0   0   0   
      0   0   0   0   0   
      0   0   0   0   0   
      0   0   0   0   0   
      0   0   0   0   0   
      0   0   0   0   0   
      0   0   0   0   0   
      0   0   0   0   0   
      0   0   0   0   0   
      0   0   0   0   0   
      0   0   0   0   0   
      0   0   0   0   0   
      0   0   0   0   0   
      0   0   0   0   0   
      0   0   0   0   0   
      0   0   0   0   0   
      0   0   0   0   0   
      0   0   0   0   0   
      0   0   0   0   0   
      0   0   0   0   0   
      0   0   0   0   0   
      0   0   0   0   0   
      0   0   0   0   0   
      0   0   0   0   0   
      0   0   0   0   0   
      0   0   0   0   0   
      0   0   0   0   0   
      0   0   0   0   0   
      0   0   0   0   0   
      0   0   0   0   0   
      0   0   0   0   0   
      0   0   0   0   0   
      0   0   0   0   0   
      0   0   0   0   0   
      0   0   0   0   0   
      0   0   0   0   0   
      0   0   0   0   0   
      0   0   0   0   0   
      0   0   0   0   0   
      0   0   0   0   0   
      0   0   0   0   0   
      0   0   0   0   0   
      0   0   0   0   0   
      0   0   0   0   0   
      0   0   0   0   0   
      0   0   0   0   0   
      0   0   0   0   0   
      0   0   0   0   0   
      0   0   0   0   0   
      0   0   0   0   0   
      0   0   0   0   0   
      0   0   0   0   0   
      0   0   0   0   0   
      0   0   0   0   0   
      0   0   0   0   0   
      0   0   0   0   0   
      0   0   0   0   0   
      0   0   0   0   0   
      0   0   0   0   0   
      0   0   0   0   0   
      0   0   0   0   0   
      0   0   0   0   0   
      0   0   0   0   0   
      0   0   0   0   0   
      0   0   0   0   0   
      0   0   0   0   0   
      0   0   0   0   0   
      0   0   0   0   0   
      0   0   0   0   0   
      0   0   0   0   0   
      0   0   0   0   0   
      0   0   0   0   0   
      0.574084149478   0.574070373366   0.574029077666   0.57396036084   0.573864388803   
      0.573741397648   0.573591697458   0.573415677184   0.573213810597   0.572986663254   
      0.572734900445   0.572459296025   0.57216074202   0.571840258843   0.571499005896   
      0.571138292292   0.570759587338   0.570364530379   0.569954939516   0.569532818637   
      0.569100362181   0.568659956989   0.568214180582   0.567765795255   0.567317737386   
      0.566873101491   0.566435118663   0.566007129218   0.565592549571   0.565194833627   
      0.564817429185   0.564463730156   0.564137025612   0.56384044692   0.563576914404   
      0.563349085075   0.563159303069   0.563009554386   0.562901427471   0.56283608099   
      0.562814219946   0.56283608099   0.562901427471   0.563009554386   0.563159303069   
      0.563349085075   0.563576914404   0.56384044692   0.564137025612   0.564463730156   
      0.564817429185   0.565194833627   0.565592549571   0.566007129218   0.566435118663   
      0.566873101491   0.567317737386   0.567765795255   0.568214180582   0.568659956989   
      0.569100362181   0.569532818637   0.569954939516   0.570364530379   0.570759587338   
      0.571138292292   0.571499005896   0.571840258843   0.57216074202   0.572459296025   
      0.572734900445   0.572986663254   0.573213810597   0.573415677184   0.573591697458   
      0.573741397648   0.573864388803   0.57396036084   0.574029077666   0.574070373366   
      0.462577005367   0.462557906441   0.462500654037   0.462405382085   0.462272316499   
      0.462101779222   0.461894193862   0.461650092928   0.461370126587   0.461055072921   
      0.460705849554   0.460323526535   0.459909340257   0.459464708175   0.45899124396   
      0.458490772682   0.45796534549   0.457417253182   0.456849037963   0.456263502602   
      0.45566371616   0.45505301539   0.454435000958   0.453813527656   0.453192687867   
      0.452576787724   0.451970315574   0.451377902632   0.450804275992   0.45025420449   
      0.449732438235   0.449243642959   0.448792330645   0.448382788127   0.448019005582   
      0.447704606946   0.447442784314   0.447236238369   0.44708712672   0.446997021825   
      0.4469668799   0.446997021825   0.44708712672   0.447236238369   0.447442784314   
      0.447704606946   0.448019005582   0.448382788127   0.448792330645   0.449243642959   
      0.449732438235   0.45025420449   0.450804275992   0.451377902632   0.451970315574   
      0.452576787724   0.453192687867   0.453813527656   0.454435000958   0.45505301539   
      0.45566371616   0.456263502602   0.456849037963   0.457417253182   0.45796534549   
      0.458490772682   0.45899124396   0.459464708175   0.459909340257   0.460323526535   
      0.460705849554   0.461055072921   0.461370126587   0.461650092928   0.461894193862   
      0.462101779222   0.462272316499   0.462405382085   0.462500654037   0.462557906441   
      0.438017909004   0.437993171244   0.437919018735   0.43779563485   0.437623328732   
      0.43740254055   0.437133848838   0.436817979836   0.436455818786   0.436048423053   
      0.435597036923   0.435103107833   0.434568303762   0.433994531372   0.433383954423   
      0.432739011874   0.432062434944   0.431357262352   0.430626852796   0.429874893707   
      0.429105405232   0.428322738416   0.427531566584   0.426736869024   0.425943906252   
      0.425158186317   0.424385421945   0.423631478581   0.422902313789   0.422203908821   
      0.421542193531   0.42092296616   0.420351809796   0.419834007547   0.41937445862   
      0.418977597549   0.418647318815   0.418386908981   0.418198988265   0.418085463252   
      0.418047492101   0.418085463252   0.418198988265   0.418386908981   0.418647318815   
      0.418977597549   0.41937445862   0.419834007547   0.420351809796   0.42092296616   
      0.421542193531   0.422203908821   0.422902313789   0.423631478581   0.424385421945   
      0.425158186317   0.425943906252   0.426736869024   0.427531566584   0.428322738416   
      0.429105405232   0.429874893707   0.430626852796   0.431357262352   0.432062434944   
      0.432739011874   0.433383954423   0.433994531372   0.434568303762   0.435103107833   
      0.435597036923   0.436048423053   0.436455818786   0.436817979836   0.437133848838   
      0.43740254055   0.437623328732   0.43779563485   0.437919018735   0.437993171244   
      0.413702863395   0.413672483148   0.413581423229   0.413429927387   0.413218406116   
      0.412947442995   0.41261780349   0.412230446124   0.411786535894   0.411287459754   
      0.410734843909   0.410130572592   0.409476807898   0.408776010142   0.408030958082   
      0.407244768244   0.406420912444   0.405563232507   0.4046759511   0.403763677523   
      0.402831407313   0.401884514543   0.400928735816   0.399970145118   0.399015118943   
      0.398070291388   0.39714249928   0.396238717775   0.395365987251   0.394531332708   
      0.39374167725   0.393003751467   0.392324000821   0.391708493212   0.391162828991   
      0.39069205563   0.390300589135   0.389992144128   0.389769674276   0.389635324462   
      0.389590395825   0.389635324462   0.389769674276   0.389992144128   0.390300589135   
      0.39069205563   0.391162828991   0.391708493212   0.392324000821   0.393003751467   
      0.39374167725   0.394531332708   0.395365987251   0.396238717775   0.39714249928   
      0.398070291388   0.399015118943   0.399970145118   0.400928735816   0.401884514543   
      0.402831407313   0.403763677523   0.4046759511   0.405563232507   0.406420912444   
      0.407244768244   0.408030958082   0.408776010142   0.409476807898   0.410130572592   
      0.410734843909   0.411287459754   0.411786535894   0.412230446124   0.41261780349   
      0.412947442995   0.413218406116   0.413429927387   0.413581423229   0.413672483148   
      0.394622884336   0.394588217574   0.394484317285   0.39431148488   0.394070227423   
      0.39376126465   0.393385538672   0.392944226237   0.392438753357   0.391870812045   
      0.391242378829   0.390555734579   0.389813485119   0.389018581943   0.388174342219   
      0.387284467175   0.386353057814   0.38538462681   0.384384105413   0.383356844125   
      0.382308606005   0.381245551518   0.380174214067   0.379101465579   0.378034471819   
      0.376980637488   0.37594754156   0.374942863698   0.373974302994   0.373049490607   
      0.372175898164   0.371360743951   0.370610899053   0.369932795565   0.369332338944   
      0.368814826379   0.368384872873   0.36804634645   0.367802313676   0.367654996404   
      0.367605740409   0.367654996404   0.367802313676   0.36804634645   0.368384872873   
      0.368814826379   0.369332338944   0.369932795565   0.370610899053   0.371360743951   
      0.372175898164   0.373049490607   0.373974302994   0.374942863698   0.37594754156   
      0.376980637488   0.378034471819   0.379101465579   0.380174214067   0.381245551518   
      0.382308606005   0.383356844125   0.384384105413   0.38538462681   0.386353057814   
      0.387284467175   0.388174342219   0.389018581943   0.389813485119   0.390555734579   
      0.391242378829   0.391870812045   0.392438753357   0.392944226237   0.393385538672   
      0.39376126465   0.394070227423   0.39431148488   0.394484317285   0.394588217574   
      0.379682458824   0.379644852529   0.379532149879   0.37934470108   0.37908309479   
      0.378748165514   0.378341003791   0.377862969003   0.377315704555   0.37670115509   
      0.376021585313   0.375279599891   0.374478163733   0.3736206219   0.372710718174   
      0.371752611272   0.370750887538   0.369710568899   0.368637114854   0.367536417272   
      0.366414786909   0.365278930715   0.364135919244   0.362993143833   0.361858263543   
      0.360739142319   0.359643777196   0.358580218808   0.357556485797   0.356580474971   
      0.355659869276   0.354802045674   0.354013984992   0.353302185698   0.352672583291   
      0.352130476774   0.351680463355   0.351326382245   0.351071268152   0.350917314855   
      0.350865849092   0.350917314855   0.351071268152   0.351326382245   0.351680463355   
      0.352130476774   0.352672583291   0.353302185698   0.354013984992   0.354802045674   
      0.355659869276   0.356580474971   0.357556485797   0.358580218808   0.359643777196   
      0.360739142319   0.361858263543   0.362993143833   0.364135919244   0.365278930715   
      0.366414786909   0.367536417272   0.368637114854   0.369710568899   0.370750887538   
      0.371752611272   0.372710718174   0.3736206219   0.374478163733   0.375279599891   
      0.376021585313   0.37670115509   0.377315704555   0.377862969003   0.378341003791   
      0.378748165514   0.37908309479   0.37934470108   0.379532149879   0.379644852529   
      0.368912390086   0.368872967747   0.368754829281   0.368558361884   0.368284216001   
      0.367933312903   0.367506855094   0.367006339331   0.366433571955   0.365790686135   
      0.365080160524   0.364304838697   0.363467948608   0.362573121187   0.361624407043   
      0.360626290151   0.359583697303   0.358502002077   0.357387022068   0.356245008227   
      0.355082625316   0.35390692269   0.352725294971   0.351545432526   0.350375262078   
      0.349222878227   0.34809646707   0.347004223488   0.345954263943   0.34495453686   
      0.344012732708   0.343136195869   0.342331840213   0.341606070077   0.340964707969   
      0.340412930046   0.33995521001   0.339595271774   0.33933605103   0.33917966562   
      0.339127394576   0.33917966562   0.33933605103   0.339595271774   0.33995521001   
      0.340412930046   0.340964707969   0.341606070077   0.342331840213   0.343136195869   
      0.344012732708   0.34495453686   0.345954263943   0.347004223488   0.34809646707   
      0.349222878227   0.350375262078   0.351545432526   0.352725294971   0.35390692269   
      0.355082625316   0.356245008227   0.357387022068   0.358502002077   0.359583697303   
      0.360626290151   0.361624407043   0.362573121187   0.363467948608   0.364304838697   
      0.365080160524   0.365790686135   0.366433571955   0.367006339331   0.367506855094   
      0.367933312903   0.368284216001   0.368558361884   0.368754829281   0.368872967747   
      0.362008757786   0.361968321688   0.361847150161   0.36164565507   0.361364528033   
      0.361004748079   0.360567592131   0.360054648072   0.359467830051   0.358809395591   
      0.358081963928   0.357288534897   0.356432507548   0.355517697517   0.354548352093   
      0.353529161778   0.352465267102   0.351362259424   0.350226174485   0.349063477621   
      0.347881039723   0.346686103317   0.34548623849   0.344289288788   0.343103307677   
      0.34193648657   0.340797075858   0.33969330072   0.338633273745   0.337624906506   
      0.336675822255   0.335793271758   0.334984054049   0.334254443576   0.333610124781   
      0.333056134829   0.332596814757   0.332235769055   0.331975833432   0.331819050373   
      0.331766652073   0.331819050373   0.331975833432   0.332235769055   0.332596814757   
      0.333056134829   0.333610124781   0.334254443576   0.334984054049   0.335793271758   
      0.336675822255   0.337624906506   0.338633273745   0.33969330072   0.340797075858   
      0.34193648657   0.343103307677   0.344289288788   0.34548623849   0.346686103317   
      0.347881039723   0.349063477621   0.350226174485   0.351362259424   0.352465267102   
      0.353529161778   0.354548352093   0.355517697517   0.356432507548   0.357288534897   
      0.358081963928   0.358809395591   0.359467830051   0.360054648072   0.360567592131   
      0.361004748079   0.361364528033   0.36164565507   0.361847150161   0.361968321688   
      0.358656056012   0.358615173012   0.358492664888   0.358288955834   0.358004758045   
      0.357641079389   0.357199233914   0.356680854906   0.356087910144   0.355422718888   
      0.354687969995   0.353886740456   0.353022513492   0.352099195208   0.351121128715   
      0.35009310449   0.349020365727   0.347908607392   0.346763967795   0.345593011588   
      0.344402703354   0.343200371237   0.341993660431   0.34079047678   0.339598921206   
      0.338427216086   0.33728362516   0.336176368833   0.335113536985   0.334103001476   
      0.333152330512   0.332268706854   0.331458851552   0.330728954563   0.330084613138   
      0.329530778509   0.329071710969   0.328710943161   0.328451251147   0.328294632727   
      0.328242292428   0.328294632727   0.328451251147   0.328710943161   0.329071710969   
      0.329530778509   0.330084613138   0.330728954563   0.331458851552   0.332268706854   
      0.333152330512   0.334103001476   0.335113536985   0.336176368833   0.33728362516   
      0.338427216086   0.339598921206   0.34079047678   0.341993660431   0.343200371237   
      0.344402703354   0.345593011588   0.346763967795   0.347908607392   0.349020365727   
      0.35009310449   0.351121128715   0.352099195208   0.353022513492   0.353886740456   
      0.354687969995   0.355422718888   0.356087910144   0.356680854906   0.357199233914   
      0.357641079389   0.358004758045   0.358288955834   0.358492664888   0.358615173012   
      0.358656056012   0.358615173012   0.358492664888   0.358288955834   0.358004758045   
      0.357641079389   0.357199233914   0.356680854906   0.356087910144   0.355422718888   
      0.354687969995   0.353886740456   0.353022513492   0.352099195208   0.351121128715   
      0.35009310449   0.349020365727   0.347908607392   0.346763967795   0.345593011588   
      0.344402703354   0.343200371237   0.341993660431   0.34079047678   0.339598921206   
      0.338427216086   0.33728362516   0.336176368833   0.335113536985   0.334103001476   
      0.333152330512   0.332268706854   0.331458851552   0.330728954563   0.330084613138   
      0.329530778509   0.329071710969   0.328710943161   0.328451251147   0.328294632727   
      0.328242292428   0.328294632727   0.328451251147   0.328710943161   0.329071710969   
      0.329530778509   0.330084613138   0.330728954563   0.331458851552   0.332268706854   
      0.333152330512   0.334103001476   0.335113536985   0.336176368833   0.33728362516   
      0.338427216086   0.339598921206   0.34079047678   0.341993660431   0.343200371237   
      0.344402703354   0.345593011588   0.346763967795   0.347908607392   0.349020365727   
      0.35009310449   0.351121128715   0.352099195208   0.353022513492   0.353886740456   
      0.354687969995   0.355422718888   0.356087910144   0.356680854906   0.357199233914   
      0.357641079389   0.358004758045   0.358288955834   0.358492664888   0.358615173012   
      0.362008757786   0.361968321688   0.361847150161   0.36164565507   0.361364528033   
      0.361004748079   0.360567592131   0.360054648072   0.359467830051   0.358809395591   
      0.358081963928   0.357288534897   0.356432507548   0.355517697517   0.354548352093   
      0.353529161778   0.352465267102   0.351362259424   0.350226174485   0.349063477621   
      0.347881039723   0.346686103317   0.34548623849   0.344289288788   0.343103307677   
      0.34193648657   0.340797075858   0.33969330072   0.338633273745   0.337624906506   
      0.336675822255   0.335793271758   0.334984054049   0.334254443576   0.333610124781   
      0.333056134829   0.332596814757   0.332235769055   0.331975833432   0.331819050373   
      0.331766652073   0.331819050373   0.331975833432   0.332235769055   0.332596814757   
      0.333056134829   0.333610124781   0.334254443576   0.334984054049   0.335793271758   
      0.336675822255   0.337624906506   0.338633273745   0.33969330072   0.340797075858   
      0.34193648657   0.343103307677   0.344289288788   0.34548623849   0.346686103317   
      0.347881039723   0.349063477621   0.350226174485   0.351362259424   0.352465267102   
      0.353529161778   0.354548352093   0.355517697517   0.356432507548   0.357288534897   
      0.358081963928   0.358809395591   0.359467830051   0.360054648072   0.360567592131   
      0.361004748079   0.361364528033   0.36164565507   0.361847150161   0.361968321688   
      0.368912390086   0.368872967747   0.368754829281   0.368558361884   0.368284216001   
      0.367933312903   0.367506855094   0.367006339331   0.366433571955   0.365790686135   
      0.365080160524   0.364304838697   0.363467948608   0.362573121187   0.361624407043   
      0.360626290151   0.359583697303   0.358502002077   0.357387022068   0.356245008227   
      0.355082625316   0.35390692269   0.352725294971   0.351545432526   0.350375262078   
      0.349222878227   0.34809646707   0.347004223488   0.345954263943   0.34495453686   
      0.344012732708   0.343136195869   0.342331840213   0.341606070077   0.340964707969   
      0.340412930046   0.33995521001   0.339595271774   0.33933605103   0.33917966562   
      0.339127394576   0.33917966562   0.33933605103   0.339595271774   0.33995521001   
      0.340412930046   0.340964707969   0.341606070077   0.342331840213   0.343136195869   
      0.344012732708   0.34495453686   0.345954263943   0.347004223488   0.34809646707   
      0.349222878227   0.350375262078   0.351545432526   0.352725294971   0.35390692269   
      0.355082625316   0.356245008227   0.357387022068   0.358502002077   0.359583697303   
      0.360626290151   0.361624407043   0.362573121187   0.363467948608   0.364304838697   
      0.365080160524   0.365790686135   0.366433571955   0.367006339331   0.367506855094   
      0.367933312903   0.368284216001   0.368558361884   0.368754829281   0.368872967747   
      0.379682458824   0.379644852529   0.379532149879   0.37934470108   0.37908309479   
      0.378748165514   0.378341003791   0.377862969003   0.377315704555   0.37670115509   
      0.376021585313   0.375279599891   0.374478163733   0.3736206219   0.372710718174   
      0.371752611272   0.370750887538   0.369710568899   0.368637114854   0.367536417272   
      0.366414786909   0.365278930715   0.364135919244   0.362993143833   0.361858263543   
      0.360739142319   0.359643777196   0.358580218808   0.357556485797   0.356580474971   
      0.355659869276   0.354802045674   0.354013984992   0.353302185698   0.352672583291   
      0.352130476774   0.351680463355   0.351326382245   0.351071268152   0.350917314855   
      0.350865849092   0.350917314855   0.351071268152   0.351326382245   0.351680463355   
      0.352130476774   0.352672583291   0.353302185698   0.354013984992   0.354802045674   
      0.355659869276   0.356580474971   0.357556485797   0.358580218808   0.359643777196   
      0.360739142319   0.361858263543   0.362993143833   0.364135919244   0.365278930715   
      0.366414786909   0.367536417272   0.368637114854   0.369710568899   0.370750887538   
      0.371752611272   0.372710718174   0.3736206219   0.374478163733   0.375279599891   
      0.376021585313   0.37670115509   0.377315704555   0.377862969003   0.378341003791   
      0.378748165514   0.37908309479   0.37934470108   0.379532149879   0.379644852529   
      0.394622884336   0.394588217574   0.394484317285   0.39431148488   0.394070227423   
      0.39376126465   0.393385538672   0.392944226237   0.392438753357   0.391870812045   
      0.391242378829   0.390555734579   0.389813485119   0.389018581943   0.388174342219   
      0.387284467175   0.386353057814   0.38538462681   0.384384105413   0.383356844125   
      0.382308606005   0.381245551518   0.380174214067   0.379101465579   0.378034471819   
      0.376980637488   0.37594754156   0.374942863698   0.373974302994   0.373049490607   
      0.372175898164   0.371360743951   0.370610899053   0.369932795565   0.369332338944   
      0.368814826379   0.368384872873   0.36804634645   0.367802313676   0.367654996404   
      0.367605740409   0.367654996404   0.367802313676   0.36804634645   0.368384872873   
      0.368814826379   0.369332338944   0.369932795565   0.370610899053   0.371360743951   
      0.372175898164   0.373049490607   0.373974302994   0.374942863698   0.37594754156   
      0.376980637488   0.378034471819   0.379101465579   0.380174214067   0.381245551518   
      0.382308606005   0.383356844125   0.384384105413   0.38538462681   0.386353057814   
      0.387284467175   0.388174342219   0.389018581943   0.389813485119   0.390555734579   
      0.391242378829   0.391870812045   0.392438753357   0.392944226237   0.393385538672   
      0.39376126465   0.394070227423   0.39431148488   0.394484317285   0.394588217574   
      0.413702863395   0.413672483148   0.413581423229   0.413429927387   0.413218406116   