<?xml version="1.0"?>
<VTKFile type="ImageData" version="0.1" byte_order="LittleEndian">
  <ImageData WholeExtent="0 79 0 19 0 19" Origin="0 0 0" Spacing="1 1 1">
  <Piece Extent="0 79 0 19 0 19">
    <PointData Scalars="density">
       <DataArray type="Float32" Name="bluedensity" NumberOfComponents="1" format="ascii">
      0   0   0   0   0   
      0   0   0   0   0   
      0   0   0   0   0   
      0   0   0   0   0   
      0   0   0   0   0   
      0   0   0   0   0   
      0   0   0   0   0   
      0   0   0   0   0   
      0   0   0   0   0   
      0   0   0   0   0   
      0   0   0   0   0   
      0   0   0   0   0   
      0   0   0   0   0   
      0   0   0   0   0   
      0   0   0   0   0   
      0   0   0   0   0   
      0   0   0   0   0   
      0   0   0   0   0   
      0   0   0   0   0   
      0   0   0   0   0   
      0   0   0   0   0   
      0   0   0   0   0   
      0   0   0   0   0   
      0   0   0   0   0   
      0   0   0   0   0   
      0   0   0   0   0   
      0   0   0   0   0   
      0   0   0   0   0   
      0   0   0   0   0   
      0   0   0   0   0   
      0   0   0   0   0   
      0   0   0   0   0   
      0   0   0   0   0   
      0   0   0   0   0   
      0   0   0   0   0   
      0   0   0   0   0   
      0   0   0   0   0   
      0   0   0   0   0   
      0   0   0   0   0   
      0   0   0   0   0   
      0   0   0   0   0   
      0   0   0   0   0   
      0   0   0   0   0   
      0   0   0   0   0   
      0   0   0   0   0   
      0   0   0   0   0   
      0   0   0   0   0   
      0   0   0   0   0   
      0   0   0   0   0   
      0   0   0   0   0   
      0   0   0   0   0   
      0   0   0   0   0   
      0   0   0   0   0   
      0   0   0   0   0   
      0   0   0   0   0   
      0   0   0   0   0   
      0   0   0   0   0   
      0   0   0   0   0   
      0   0   0   0   0   
      0   0   0   0   0   
      0   0   0   0   0   
      0   0   0   0   0   
      0   0   0   0   0   
      0   0   0   0   0   
      0   0   0   0   0   
      0   0   0   0   0   
      0   0   0   0   0   
      0   0   0   0   0   
      0   0   0   0   0   
      0   0   0   0   0   
      0   0   0   0   0   
      0   0   0   0   0   
      0   0   0   0   0   
      0   0   0   0   0   
      0   0   0   0   0   
      0   0   0   0   0   
      0   0   0   0   0   
      0   0   0   0   0   
      0   0   0   0   0   
      0   0   0   0   0   
      0   0   0   0   0   
      0   0   0   0   0   
      0   0   0   0   0   
      0   0   0   0   0   
      0   0   0   0   0   
      0   0   0   0   0   
      0   0   0   0   0   
      0   0   0   0   0   
      0   0   0   0   0   
      0   0   0   0   0   
      0   0   0   0   0   
      0   0   0   0   0   
      0   0   0   0   0   
      0   0   0   0   0   
      0   0   0   0   0   
      0   0   0   0   0   
      0   0   0   0   0   
      0   0   0   0   0   
      0   0   0   0   0   
      0   0   0   0   0   
      0   0   0   0   0   
      0   0   0   0   0   
      0   0   0   0   0   
      0   0   0   0   0   
      0   0   0   0   0   
      0   0   0   0   0   
      0   0   0   0   0   
      0   0   0   0   0   
      0   0   0   0   0   
      0   0   0   0   0   
      0   0   0   0   0   
      0   0   0   0   0   
      0   0   0   0   0   
      0   0   0   0   0   
      0   0   0   0   0   
      0   0   0   0   0   
      0   0   0   0   0   
      0   0   0   0   0   
      0   0   0   0   0   
      0   0   0   0   0   
      0   0   0   0   0   
      0   0   0   0   0   
      0   0   0   0   0   
      0   0   0   0   0   
      0   0   0   0   0   
      0   0   0   0   0   
      0   0   0   0   0   
      0   0   0   0   0   
      0   0   0   0   0   
      0   0   0   0   0   
      0   0   0   0   0   
      0   0   0   0   0   
      0   0   0   0   0   
      0   0   0   0   0   
      0   0   0   0   0   
      0   0   0   0   0   
      0   0   0   0   0   
      0   0   0   0   0   
      0   0   0   0   0   
      0   0   0   0   0   
      0   0   0   0   0   
      0   0   0   0   0   
      0   0   0   0   0   
      0   0   0   0   0   
      0   0   0   0   0   
      0   0   0   0   0   
      0   0   0   0   0   
      0   0   0   0   0   
      0   0   0   0   0   
      0   0   0   0   0   
      0   0   0   0   0   
      0   0   0   0   0   
      0   0   0   0   0   
      0   0   0   0   0   
      0   0   0   0   0   
      0   0   0   0   0   
      0   0   0   0   0   
      0   0   0   0   0   
      0   0   0   0   0   
      0   0   0   0   0   
      0   0   0   0   0   
      0   0   0   0   0   
      0   0   0   0   0   
      0   0   0   0   0   
      0   0   0   0   0   
      0   0   0   0   0   
      0   0   0   0   0   
      0   0   0   0   0   
      0   0   0   0   0   
      0   0   0   0   0   
      0   0   0   0   0   
      0   0   0   0   0   
      0   0   0   0   0   
      0   0   0   0   0   
      0   0   0   0   0   
      0   0   0   0   0   
      0   0   0   0   0   
      0   0   0   0   0   
      0   0   0   0   0   
      0   0   0   0   0   
      0   0   0   0   0   
      0   0   0   0   0   
      0   0   0   0   0   
      0   0   0   0   0   
      0   0   0   0   0   
      0   0   0   0   0   
      0   0   0   0   0   
      0   0   0   0   0   
      0   0   0   0   0   
      0   0   0   0   0   
      0   0   0   0   0   
      0   0   0   0   0   
      0   0   0   0   0   
      0   0   0   0   0   
      0   0   0   0   0   
      0   0   0   0   0   
      0   0   0   0   0   
      0   0   0   0   0   
      0   0   0   0   0   
      0   0   0   0   0   
      0   0   0   0   0   
      0   0   0   0   0   
      0   0   0   0   0   
      0   0   0   0   0   
      0   0   0   0   0   
      0   0   0   0   0   
      0   0   0   0   0   
      0   0   0   0   0   
      0   0   0   0   0   
      0   0   0   0   0   
      0   0   0   0   0   
      0   0   0   0   0   
      0   0   0   0   0   
      0   0   0   0   0   
      0   0   0   0   0   
      0   0   0   0   0   
      0   0   0   0   0   
      0   0   0   0   0   
      0   0   0   0   0   
      0   0   0   0   0   
      0   0   0   0   0   
      0   0   0   0   0   
      0   0   0   0   0   
      0   0   0   0   0   
      0   0   0   0   0   
      0   0   0   0   0   
      0   0   0   0   0   
      0   0   0   0   0   
      0   0   0   0   0   
      0   0   0   0   0   
      0   0   0   0   0   
      0   0   0   0   0   
      0   0   0   0   0   
      0   0   0   0   0   
      0   0   0   0   0   
      0   0   0   0   0   
      0   0   0   0   0   
      0   0   0   0   0   
      0   0   0   0   0   
      0   0   0   0   0   
      0   0   0   0   0   
      0   0   0   0   0   
      0   0   0   0   0   
      0   0   0   0   0   
      0   0   0   0   0   
      0   0   0   0   0   
      0   0   0   0   0   
      0   0   0   0   0   
      0   0   0   0   0   
      0   0   0   0   0   
      0   0   0   0   0   
      0   0   0   0   0   
      0   0   0   0   0   
      0   0   0   0   0   
      0   0   0   0   0   
      0   0   0   0   0   
      0   0   0   0   0   
      0   0   0   0   0   
      0   0   0   0   0   
      0   0   0   0   0   
      0   0   0   0   0   
      0   0   0   0   0   
      0   0   0   0   0   
      0   0   0   0   0   
      0   0   0   0   0   
      0   0   0   0   0   
      0   0   0   0   0   
      0   0   0   0   0   
      0   0   0   0   0   
      0   0   0   0   0   
      0   0   0   0   0   
      0   0   0   0   0   
      0   0   0   0   0   
      0   0   0   0   0   
      0   0   0   0   0   
      0   0   0   0   0   
      0   0   0   0   0   
      0   0   0   0   0   
      0   0   0   0   0   
      0   0   0   0   0   
      0   0   0   0   0   
      0   0   0   0   0   
      0   0   0   0   0   
      0   0   0   0   0   
      0   0   0   0   0   
      0   0   0   0   0   
      0   0   0   0   0   
      0   0   0   0   0   
      0   0   0   0   0   
      0   0   0   0   0   
      0   0   0   0   0   
      0   0   0   0   0   
      0   0   0   0   0   
      0   0   0   0   0   
      0   0   0   0   0   
      0   0   0   0   0   
      0   0   0   0   0   
      0   0   0   0   0   
      0   0   0   0   0   
      0   0   0   0   0   
      0   0   0   0   0   
      0   0   0   0   0   
      0   0   0   0   0   
      0   0   0   0   0   
      0   0   0   0   0   
      0   0   0   0   0   
      0   0   0   0   0   
      0   0   0   0   0   
      0   0   0   0   0   
      0   0   0   0   0   
      0   0   0   0   0   
      0   0   0   0   0   
      0   0   0   0   0   
      0   0   0   0   0   
      0   0   0   0   0   
      0   0   0   0   0   
      0   0   0   0   0   
      0   0   0   0   0   
      0   0   0   0   0   
      0   0   0   0   0   
      0   0   0   0   0   
      0   0   0   0   0   
      0   0   0   0   0   
      0   0   0   0   0   
      0   0   0   0   0   
      0   0   0   0   0   
      0   0   0   0   0   
      0   0   0   0   0   
      0   0   0   0   0   
      0   0   0   0   0   
      0   0   0   0   0   
      0   0   0   0   0   
      0   0   0   0   0   
      0   0   0   0   0   
      0   0   0   0   0   
      0   0   0   0   0   
      0.577442180834   0.577420480184   0.577355384756   0.577246914989   0.57709510786   
      0.576900021379   0.576661741112   0.576380388983   0.576056134621   0.575689209634   
      0.575279925162   0.574828693119   0.57433605152   0.573802694197   0.573229505136   
      0.572617597475   0.571968356929   0.571283489115   0.570565069787   0.569815596538   
      0.56903803999   0.56823589192   0.56741320732   0.566574636937   0.56572544663   
      0.564871519871   0.564019339948   0.563175949039   0.562348882179   0.561546075295   
      0.560775747841   0.56004626206   0.559365962371   0.55874299974   0.558185147078   
      0.55769961252   0.557292857919   0.556970429933   0.556736810771   0.556595294894   
      0.556547896948   0.556595294894   0.556736810771   0.556970429933   0.557292857919   
      0.55769961252   0.558185147078   0.55874299974   0.559365962371   0.56004626206   
      0.560775747841   0.561546075295   0.562348882179   0.563175949039   0.564019339948   
      0.564871519871   0.56572544663   0.566574636937   0.56741320732   0.56823589192   
      0.56903803999   0.569815596538   0.570565069787   0.571283489115   0.571968356929   
      0.572617597475   0.573229505136   0.573802694197   0.57433605152   0.574828693119   
      0.575279925162   0.575689209634   0.576056134621   0.576380388983   0.576661741112   
      0.576900021379   0.57709510786   0.577246914989   0.577355384756   0.577420480184   
      0.467411175377   0.467381201261   0.467291283079   0.467141434699   0.466931683813   
      0.466662079001   0.466332699944   0.465943671164   0.465495179682   0.464987497091   
      0.464421006572   0.463796235366   0.463113893179   0.462374916891   0.46158052171   
      0.460732258635   0.459832077682   0.458882395812   0.457886167866   0.456846958148   
      0.455769009532   0.45465730633   0.453517626497   0.452356578417   0.451181617356   
      0.450001036905   0.448823931379   0.447660126167   0.446520074424   0.445414720223   
      0.444355330111   0.443353296923   0.442419921419   0.441566178802   0.440802478186   
      0.440138423741   0.439582586299   0.439142293915   0.438823449096   0.438630379397   
      0.438565726735   0.438630379397   0.438823449096   0.439142293915   0.439582586299   
      0.440138423741   0.440802478186   0.441566178802   0.442419921419   0.443353296923   
      0.444355330111   0.445414720223   0.446520074424   0.447660126167   0.448823931379   
      0.450001036905   0.451181617356   0.452356578417   0.453517626497   0.45465730633   
      0.455769009532   0.456846958148   0.457886167866   0.458882395812   0.459832077682   
      0.460732258635   0.46158052171   0.462374916891   0.463113893179   0.463796235366   
      0.464421006572   0.464987497091   0.465495179682   0.465943671164   0.466332699944   
      0.466662079001   0.466931683813   0.467141434699   0.467291283079   0.467381201261   
      0.444424829905   0.444385837482   0.444268870876   0.444073964023   0.443801180038   
      0.44345062126   0.443022443763   0.442516876732   0.441934247224   0.441275010881   
      0.44053978918   0.439729413766   0.438844978316   0.437887898145   0.436859977472   
      0.435763483782   0.434601228165   0.43337664978   0.432093901796   0.430757935306   
      0.429374576863   0.427950594575   0.426493747182   0.425012810382   0.423517574883   
      0.422018811434   0.420528199257   0.419058216006   0.417621989344   0.416233112437   
      0.41490542775   0.413652785495   0.412488784544   0.411426504636   0.410478239041   
      0.409655236731   0.408967462396   0.408423381647   0.408029777539   0.407791603214   
      0.407711874264   0.407791603214   0.408029777539   0.408423381647   0.408967462396   
      0.409655236731   0.410478239041   0.411426504636   0.412488784544   0.413652785495   
      0.41490542775   0.416233112437   0.417621989344   0.419058216006   0.420528199257   
      0.422018811434   0.423517574883   0.425012810382   0.426493747182   0.427950594575   
      0.429374576863   0.430757935306   0.432093901796   0.43337664978   0.434601228165   
      0.435763483782   0.436859977472   0.437887898145   0.438844978316   0.439729413766   
      0.44053978918   0.441275010881   0.441934247224   0.442516876732   0.443022443763   
      0.44345062126   0.443801180038   0.444073964023   0.444268870876   0.444385837482   
      0.421716144994   0.421667889356   0.421523147717   0.4212819985   0.420944581142   
      0.420511109441   0.41998189076   0.419357351531   0.418638069643   0.417824814295   
      0.416918593891   0.415920712447   0.414832834778   0.413657060371   0.412396005393   
      0.411052891639   0.409631640438   0.408136968635   0.406574482804   0.40495076688   
      0.403273457574   0.401551301345   0.399794186494   0.398013144245   0.396220313537   
      0.39442886569   0.392652887112   0.390907220528   0.389207267773   0.387568759573   
      0.386007499838   0.384539093446   0.383178667279   0.381940594212   0.380838229075   
      0.379883664277   0.379087511173   0.378458711536   0.378004381856   0.37772969193   
      0.377637778209   0.37772969193   0.378004381856   0.378458711536   0.379087511173   
      0.379883664277   0.380838229075   0.381940594212   0.383178667279   0.384539093446   
      0.386007499838   0.387568759573   0.389207267773   0.390907220528   0.392652887112   
      0.39442886569   0.396220313537   0.398013144245   0.399794186494   0.401551301345   
      0.403273457574   0.40495076688   0.406574482804   0.408136968635   0.409631640438   
      0.411052891639   0.412396005393   0.413657060371   0.414832834778   0.415920712447   
      0.416918593891   0.417824814295   0.418638069643   0.419357351531   0.41998189076   
      0.420511109441   0.420944581142   0.4212819985   0.421523147717   0.421667889356   
      0.403894926064   0.403839378005   0.403672778758   0.403395266289   0.4030070812   
      0.402508583002   0.401900273418   0.401182827219   0.40035713114   0.399424331419   
      0.398385890449   0.397243652823   0.395999920713   0.394657538078   0.393219982522   
      0.391691462817   0.39007701915   0.388382622114   0.3866152654   0.384783046228   
      0.38289522686   0.380962270301   0.378995843532   0.377008782622   0.375015015627   
      0.373029441469   0.371067765649   0.369146296539   0.367281708741   0.365490782295   
      0.363790128041   0.36219591005   0.360723575664   0.359387602365   0.358201268754   
      0.357176454523   0.356323471899   0.355650928848   0.355165622642   0.354872461326   
      0.354774410279   0.354872461326   0.355165622642   0.355650928848   0.356323471899   
      0.357176454523   0.358201268754   0.359387602365   0.360723575664   0.36219591005   
      0.363790128041   0.365490782295   0.367281708741   0.369146296539   0.371067765649   
      0.373029441469   0.375015015627   0.377008782622   0.378995843532   0.380962270301   
      0.38289522686   0.384783046228   0.3866152654   0.388382622114   0.39007701915   
      0.391691462817   0.393219982522   0.394657538078   0.395999920713   0.397243652823   
      0.398385890449   0.399424331419   0.40035713114   0.401182827219   0.401900273418   
      0.402508583002   0.4030070812   0.403395266289   0.403672778758   0.403839378005   
      0.389846988887   0.389786243687   0.389604072833   0.389300674223   0.388876389977   
      0.388331725157   0.387667374509   0.386884257698   0.385983563549   0.384966803761   
      0.383835876408   0.382593139256   0.381241492492   0.379784469818   0.378226336088   
      0.376572188679   0.37482805869   0.37300100697   0.371099208895   0.369132021014   
      0.367110022277   0.36504502273   0.362950033419   0.360839192902   0.358727648135   
      0.356631390437   0.354567050432   0.352551659067   0.350602384382   0.348736255612   
      0.346969886857   0.34531921212   0.343799241896   0.342423849031   0.341205588537   
      0.340155552953   0.339283261933   0.338596582494   0.338101674833   0.337802958019   
      0.337703090079   0.337802958019   0.338101674833   0.338596582494   0.339283261933   
      0.340155552953   0.341205588537   0.342423849031   0.343799241896   0.34531921212   
      0.346969886857   0.348736255612   0.350602384382   0.352551659067   0.354567050432   
      0.356631390437   0.358727648135   0.360839192902   0.362950033419   0.36504502273   
      0.367110022277   0.369132021014   0.371099208895   0.37300100697   0.37482805869   
      0.376572188679   0.378226336088   0.379784469818   0.381241492492   0.382593139256   
      0.383835876408   0.384966803761   0.385983563549   0.386884257698   0.387667374509   
      0.388331725157   0.388876389977   0.389300674223   0.389604072833   0.389786243687   
      0.379649222696   0.379585125273   0.379392914382   0.379072838212   0.378625324013   
      0.378050998769   0.377350718669   0.376525607803   0.375577106534   0.37450702991   
      0.373317636239   0.372011705602   0.370592627526   0.369064496269   0.367432211281   
      0.365701579283   0.363879413259   0.361973622479   0.359993286721   0.357948707182   
      0.355851426516   0.353714211032   0.351550989513   0.349376745421   0.347207362182   
      0.345059424757   0.342949984146   0.340896294704   0.338915536464   0.337024535873   
      0.335239498212   0.333575763485   0.332047594942   0.330668006018   0.32944862779   
      0.328399615503   0.327529589739   0.326845605654   0.32635314253   0.326056105738   
      0.32595683392   0.326056105738   0.32635314253   0.326845605654   0.327529589739   
      0.328399615503   0.32944862779   0.330668006018   0.332047594942   0.333575763485   
      0.335239498212   0.337024535873   0.338915536464   0.340896294704   0.342949984146   
      0.345059424757   0.347207362182   0.349376745421   0.351550989513   0.353714211032   
      0.355851426516   0.357948707182   0.359993286721   0.361973622479   0.363879413259   
      0.365701579283   0.367432211281   0.369064496269   0.370592627526   0.372011705602   
      0.373317636239   0.37450702991   0.375577106534   0.376525607803   0.377350718669   
      0.378050998769   0.378625324013   0.379072838212   0.379392914382   0.379585125273   
      0.373076860675   0.373010810135   0.372812751651   0.372482968974   0.372021949557   
      0.371430406638   0.370709310636   0.369859930287   0.368883883895   0.367783200949   
      0.366560394094   0.365218540998   0.363761375027   0.362193382801   0.360519905709   
      0.358747241271   0.356882739046   0.35493488462   0.352913364332   0.350829102901   
      0.348694266324   0.34652222339   0.34432746101   0.342125451299   0.339932471749   
      0.337765383557   0.335641376813   0.33357769434   0.331591347944   0.329698841534   
      0.327915914705   0.326257318166   0.324736629076   0.32336611042   0.322156614491   
      0.321117526867   0.320256744332   0.319580678249   0.319094274033   0.318801037552   
      0.318703060372   0.318801037552   0.319094274033   0.319580678249   0.320256744332   
      0.321117526867   0.322156614491   0.32336611042   0.324736629076   0.326257318166   
      0.327915914705   0.329698841534   0.331591347944   0.33357769434   0.335641376813   
      0.337765383557   0.339932471749   0.342125451299   0.34432746101   0.34652222339   
      0.348694266324   0.350829102901   0.352913364332   0.35493488462   0.356882739046   
      0.358747241271   0.360519905709   0.362193382801   0.363761375027   0.365218540998   
      0.366560394094   0.367783200949   0.368883883895   0.369859930287   0.370709310636   
      0.371430406638   0.372021949557   0.372482968974   0.372812751651   0.373010810135   
      0.369874355813   0.369807414705   0.36960669059   0.369272485573   0.368805318199   
      0.368205946262   0.367475399214   0.366615020574   0.365626520648   0.364512039795   
      0.363274222088   0.361916298827   0.360442180604   0.358856555825   0.357164992456   
      0.355374038628   0.353491316461   0.351525602366   0.349486886224   0.347386401485   
      0.345236618568   0.343051195137   0.340844878897   0.338633361556   0.336433086162   
      0.334261013911   0.332134360194   0.330070312606   0.328085745444   0.326196945556   
      0.324419363195   0.322767398906   0.321254233847   0.319891706722   0.318690236318   
      0.317658784914   0.31680485498   0.316134509743   0.315652407562   0.315361840386   
      0.315264767836   0.315361840386   0.315652407562   0.316134509743   0.31680485498   
      0.317658784914   0.318690236318   0.319891706722   0.321254233847   0.322767398906   
      0.324419363195   0.326196945556   0.328085745444   0.330070312606   0.332134360194   
      0.334261013911   0.336433086162   0.338633361556   0.340844878897   0.343051195137   
      0.345236618568   0.347386401485   0.349486886224   0.351525602366   0.353491316461   
      0.355374038628   0.357164992456   0.358856555825   0.360442180604   0.361916298827   
      0.363274222088   0.364512039795   0.365626520648   0.366615020574   0.367475399214   
      0.368205946262   0.368805318199   0.369272485573   0.36960669059   0.369807414705   
      0.369874355813   0.369807414705   0.36960669059   0.369272485573   0.368805318199   
      0.368205946262   0.367475399214   0.366615020574   0.365626520648   0.364512039795   
      0.363274222088   0.361916298827   0.360442180604   0.358856555825   0.357164992456   
      0.355374038628   0.353491316461   0.351525602366   0.349486886224   0.347386401485   
      0.345236618568   0.343051195137   0.340844878897   0.338633361556   0.336433086162   
      0.334261013911   0.332134360194   0.330070312606   0.328085745444   0.326196945556   
      0.324419363195   0.322767398906   0.321254233847   0.319891706722   0.318690236318   
      0.317658784914   0.31680485498   0.316134509743   0.315652407562   0.315361840386   
      0.315264767836   0.315361840386   0.315652407562   0.316134509743   0.31680485498   
      0.317658784914   0.318690236318   0.319891706722   0.321254233847   0.322767398906   
      0.324419363195   0.326196945556   0.328085745444   0.330070312606   0.332134360194   
      0.334261013911   0.336433086162   0.338633361556   0.340844878897   0.343051195137   
      0.345236618568   0.347386401485   0.349486886224   0.351525602366   0.353491316461   
      0.355374038628   0.357164992456   0.358856555825   0.360442180604   0.361916298827   
      0.363274222088   0.364512039795   0.365626520648   0.366615020574   0.367475399214   
      0.368205946262   0.368805318199   0.369272485573   0.36960669059   0.369807414705   
      0.373076860675   0.373010810135   0.372812751651   0.372482968974   0.372021949557   
      0.371430406638   0.370709310636   0.369859930287   0.368883883895   0.367783200949   
      0.366560394094   0.365218540998   0.363761375027   0.362193382801   0.360519905709   
      0.358747241271   0.356882739046   0.35493488462   0.352913364332   0.350829102901   
      0.348694266324   0.34652222339   0.34432746101   0.342125451299   0.339932471749   
      0.337765383557   0.335641376813   0.33357769434   0.331591347944   0.329698841534   
      0.327915914705   0.326257318166   0.324736629076   0.32336611042   0.322156614491   
      0.321117526867   0.320256744332   0.319580678249   0.319094274033   0.318801037552   
      0.318703060372   0.318801037552   0.319094274033   0.319580678249   0.320256744332   
      0.321117526867   0.322156614491   0.32336611042   0.324736629076   0.326257318166   
      0.327915914705   0.329698841534   0.331591347944   0.33357769434   0.335641376813   
      0.337765383557   0.339932471749   0.342125451299   0.34432746101   0.34652222339   
      0.348694266324   0.350829102901   0.352913364332   0.35493488462   0.356882739046   
      0.358747241271   0.360519905709   0.362193382801   0.363761375027   0.365218540998   
      0.366560394094   0.367783200949   0.368883883895   0.369859930287   0.370709310636   
      0.371430406638   0.372021949557   0.372482968974   0.372812751651   0.373010810135   
      0.379649222696   0.379585125273   0.379392914382   0.379072838212   0.378625324013   
      0.378050998769   0.377350718669   0.376525607803   0.375577106534   0.37450702991   
      0.373317636239   0.372011705602   0.370592627526   0.369064496269   0.367432211281   
      0.365701579283   0.363879413259   0.361973622479   0.359993286721   0.357948707182   
      0.355851426516   0.353714211032   0.351550989513   0.349376745421   0.347207362182   
      0.345059424757   0.342949984146   0.340896294704   0.338915536464   0.337024535873   
      0.335239498212   0.333575763485   0.332047594942   0.330668006018   0.32944862779   
      0.328399615503   0.327529589739   0.326845605654   0.32635314253   0.326056105738   
      0.32595683392   0.326056105738   0.32635314253   0.326845605654   0.327529589739   
      0.328399615503   0.32944862779   0.330668006018   0.332047594942   0.333575763485   
      0.335239498212   0.337024535873   0.338915536464   0.340896294704   0.342949984146   
      0.345059424757   0.347207362182   0.349376745421   0.351550989513   0.353714211032   
      0.355851426516   0.357948707182   0.359993286721   0.361973622479   0.363879413259   
      0.365701579283   0.367432211281   0.369064496269   0.370592627526   0.372011705602   
      0.373317636239   0.37450702991   0.375577106534   0.376525607803   0.377350718669   
      0.378050998769   0.378625324013   0.379072838212   0.379392914382   0.379585125273   
      0.389846988887   0.389786243687   0.389604072833   0.389300674223   0.388876389977   
      0.388331725157   0.387667374509   0.386884257698   0.385983563549   0.384966803761   
      0.383835876408   0.382593139256   0.381241492492   0.379784469818   0.378226336088   
      0.376572188679   0.37482805869   0.37300100697   0.371099208895   0.369132021014   
      0.367110022277   0.36504502273   0.362950033419   0.360839192902   0.358727648135   
      0.356631390437   0.354567050432   0.352551659067   0.350602384382   0.348736255612   
      0.346969886857   0.34531921212   0.343799241896   0.342423849031   0.341205588537   
      0.340155552953   0.339283261933   0.338596582494   0.338101674833   0.337802958019   
      0.337703090079   0.337802958019   0.338101674833   0.338596582494   0.339283261933   
      0.340155552953   0.341205588537   0.342423849031   0.343799241896   0.34531921212   
      0.346969886857   0.348736255612   0.350602384382   0.352551659067   0.354567050432   
      0.356631390437   0.358727648135   0.360839192902   0.362950033419   0.36504502273   
      0.367110022277   0.369132021014   0.371099208895   0.37300100697   0.37482805869   
      0.376572188679   0.378226336088   0.379784469818   0.381241492492   0.382593139256   
      0.383835876408   0.384966803761   0.385983563549   0.386884257698   0.387667374509   
      0.388331725157   0.388876389977   0.389300674223   0.389604072833   0.389786243687   
      0.403894926064   0.403839378005   0.403672778758   0.403395266289   0.4030070812   
      0.402508583002   0.401900273418   0.401182827219   0.40035713114   0.399424331419   
      0.398385890449   0.397243652823   0.395999920713   0.394657538078   0.393219982522   
      0.391691462817   0.39007701915   0.388382622114   0.3866152654   0.384783046228   
      0.38289522686   0.380962270301   0.378995843532   0.377008782622   0.375015015627   
      0.373029441469   0.371067765649   0.369146296539   0.367281708741   0.365490782295   
      0.363790128041   0.36219591005   0.360723575664   0.359387602365   0.358201268754   
      0.357176454523   0.356323471899   0.355650928848   0.355165622642   0.354872461326   
      0.354774410279   0.354872461326   0.355165622642   0.355650928848   0.356323471899   
      0.357176454523   0.358201268754   0.359387602365   0.360723575664   0.36219591005   
      0.363790128041   0.365490782295   0.367281708741   0.369146296539   0.371067765649   
      0.373029441469   0.375015015627   0.377008782622   0.378995843532   0.380962270301   
      0.38289522686   0.384783046228   0.3866152654   0.388382622114   0.39007701915   
      0.391691462817   0.393219982522   0.394657538078   0.395999920713   0.397243652823   
      0.398385890449   0.399424331419   0.40035713114   0.401182827219   0.401900273418   
      0.402508583002   0.4030070812   0.403395266289   0.403672778758   0.403839378005   
      0.421716144994   0.421667889356   0.421523147717   0.4212819985   0.420944581142   