<?xml version="1.0"?>
<VTKFile type="ImageData" version="0.1" byte_order="LittleEndian">
  <ImageData WholeExtent="0 79 0 19 0 19" Origin="0 0 0" Spacing="1 1 1">
  <Piece Extent="0 79 0 19 0 19">
    <PointData Scalars="density">
       <DataArray type="Float32" Name="bluedensity" NumberOfComponents="1" format="ascii">
      0   0   0   0   0   
      0   0   0   0   0   
      0   0   0   0   0   
      0   0   0   0   0   
      0   0   0   0   0   
      0   0   0   0   0   
      0   0   0   0   0   
      0   0   0   0   0   
      0   0   0   0   0   
      0   0   0   0   0   
      0   0   0   0   0   
      0   0   0   0   0   
      0   0   0   0   0   
      0   0   0   0   0   
      0   0   0   0   0   
      0   0   0   0   0   
      0   0   0   0   0   
      0   0   0   0   0   
      0   0   0   0   0   
      0   0   0   0   0   
      0   0   0   0   0   
      0   0   0   0   0   
      0   0   0   0   0   
      0   0   0   0   0   
      0   0   0   0   0   
      0   0   0   0   0   
      0   0   0   0   0   
      0   0   0   0   0   
      0   0   0   0   0   
      0   0   0   0   0   
      0   0   0   0   0   
      0   0   0   0   0   
      0   0   0   0   0   
      0   0   0   0   0   
      0   0   0   0   0   
      0   0   0   0   0   
      0   0   0   0   0   
      0   0   0   0   0   
      0   0   0   0   0   
      0   0   0   0   0   
      0   0   0   0   0   
      0   0   0   0   0   
      0   0   0   0   0   
      0   0   0   0   0   
      0   0   0   0   0   
      0   0   0   0   0   
      0   0   0   0   0   
      0   0   0   0   0   
      0   0   0   0   0   
      0   0   0   0   0   
      0   0   0   0   0   
      0   0   0   0   0   
      0   0   0   0   0   
      0   0   0   0   0   
      0   0   0   0   0   
      0   0   0   0   0   
      0   0   0   0   0   
      0   0   0   0   0   
      0   0   0   0   0   
      0   0   0   0   0   
      0   0   0   0   0   
      0   0   0   0   0   
      0   0   0   0   0   
      0   0   0   0   0   
      0   0   0   0   0   
      0   0   0   0   0   
      0   0   0   0   0   
      0   0   0   0   0   
      0   0   0   0   0   
      0   0   0   0   0   
      0   0   0   0   0   
      0   0   0   0   0   
      0   0   0   0   0   
      0   0   0   0   0   
      0   0   0   0   0   
      0   0   0   0   0   
      0   0   0   0   0   
      0   0   0   0   0   
      0   0   0   0   0   
      0   0   0   0   0   
      0   0   0   0   0   
      0   0   0   0   0   
      0   0   0   0   0   
      0   0   0   0   0   
      0   0   0   0   0   
      0   0   0   0   0   
      0   0   0   0   0   
      0   0   0   0   0   
      0   0   0   0   0   
      0   0   0   0   0   
      0   0   0   0   0   
      0   0   0   0   0   
      0   0   0   0   0   
      0   0   0   0   0   
      0   0   0   0   0   
      0   0   0   0   0   
      0   0   0   0   0   
      0   0   0   0   0   
      0   0   0   0   0   
      0   0   0   0   0   
      0   0   0   0   0   
      0   0   0   0   0   
      0   0   0   0   0   
      0   0   0   0   0   
      0   0   0   0   0   
      0   0   0   0   0   
      0   0   0   0   0   
      0   0   0   0   0   
      0   0   0   0   0   
      0   0   0   0   0   
      0   0   0   0   0   
      0   0   0   0   0   
      0   0   0   0   0   
      0   0   0   0   0   
      0   0   0   0   0   
      0   0   0   0   0   
      0   0   0   0   0   
      0   0   0   0   0   
      0   0   0   0   0   
      0   0   0   0   0   
      0   0   0   0   0   
      0   0   0   0   0   
      0   0   0   0   0   
      0   0   0   0   0   
      0   0   0   0   0   
      0   0   0   0   0   
      0   0   0   0   0   
      0   0   0   0   0   
      0   0   0   0   0   
      0   0   0   0   0   
      0   0   0   0   0   
      0   0   0   0   0   
      0   0   0   0   0   
      0   0   0   0   0   
      0   0   0   0   0   
      0   0   0   0   0   
      0   0   0   0   0   
      0   0   0   0   0   
      0   0   0   0   0   
      0   0   0   0   0   
      0   0   0   0   0   
      0   0   0   0   0   
      0   0   0   0   0   
      0   0   0   0   0   
      0   0   0   0   0   
      0   0   0   0   0   
      0   0   0   0   0   
      0   0   0   0   0   
      0   0   0   0   0   
      0   0   0   0   0   
      0   0   0   0   0   
      0   0   0   0   0   
      0   0   0   0   0   
      0   0   0   0   0   
      0   0   0   0   0   
      0   0   0   0   0   
      0   0   0   0   0   
      0   0   0   0   0   
      0   0   0   0   0   
      0   0   0   0   0   
      0   0   0   0   0   
      0   0   0   0   0   
      0   0   0   0   0   
      0   0   0   0   0   
      0   0   0   0   0   
      0   0   0   0   0   
      0   0   0   0   0   
      0   0   0   0   0   
      0   0   0   0   0   
      0   0   0   0   0   
      0   0   0   0   0   
      0   0   0   0   0   
      0   0   0   0   0   
      0   0   0   0   0   
      0   0   0   0   0   
      0   0   0   0   0   
      0   0   0   0   0   
      0   0   0   0   0   
      0   0   0   0   0   
      0   0   0   0   0   
      0   0   0   0   0   
      0   0   0   0   0   
      0   0   0   0   0   
      0   0   0   0   0   
      0   0   0   0   0   
      0   0   0   0   0   
      0   0   0   0   0   
      0   0   0   0   0   
      0   0   0   0   0   
      0   0   0   0   0   
      0   0   0   0   0   
      0   0   0   0   0   
      0   0   0   0   0   
      0   0   0   0   0   
      0   0   0   0   0   
      0   0   0   0   0   
      0   0   0   0   0   
      0   0   0   0   0   
      0   0   0   0   0   
      0   0   0   0   0   
      0   0   0   0   0   
      0   0   0   0   0   
      0   0   0   0   0   
      0   0   0   0   0   
      0   0   0   0   0   
      0   0   0   0   0   
      0   0   0   0   0   
      0   0   0   0   0   
      0   0   0   0   0   
      0   0   0   0   0   
      0   0   0   0   0   
      0   0   0   0   0   
      0   0   0   0   0   
      0   0   0   0   0   
      0   0   0   0   0   
      0   0   0   0   0   
      0   0   0   0   0   
      0   0   0   0   0   
      0   0   0   0   0   
      0   0   0   0   0   
      0   0   0   0   0   
      0   0   0   0   0   
      0   0   0   0   0   
      0   0   0   0   0   
      0   0   0   0   0   
      0   0   0   0   0   
      0   0   0   0   0   
      0   0   0   0   0   
      0   0   0   0   0   
      0   0   0   0   0   
      0   0   0   0   0   
      0   0   0   0   0   
      0   0   0   0   0   
      0   0   0   0   0   
      0   0   0   0   0   
      0   0   0   0   0   
      0   0   0   0   0   
      0   0   0   0   0   
      0   0   0   0   0   
      0   0   0   0   0   
      0   0   0   0   0   
      0   0   0   0   0   
      0   0   0   0   0   
      0   0   0   0   0   
      0   0   0   0   0   
      0   0   0   0   0   
      0   0   0   0   0   
      0   0   0   0   0   
      0   0   0   0   0   
      0   0   0   0   0   
      0   0   0   0   0   
      0   0   0   0   0   
      0   0   0   0   0   
      0   0   0   0   0   
      0   0   0   0   0   
      0   0   0   0   0   
      0   0   0   0   0   
      0   0   0   0   0   
      0   0   0   0   0   
      0   0   0   0   0   
      0   0   0   0   0   
      0   0   0   0   0   
      0   0   0   0   0   
      0   0   0   0   0   
      0   0   0   0   0   
      0   0   0   0   0   
      0   0   0   0   0   
      0   0   0   0   0   
      0   0   0   0   0   
      0   0   0   0   0   
      0   0   0   0   0   
      0   0   0   0   0   
      0   0   0   0   0   
      0   0   0   0   0   
      0   0   0   0   0   
      0   0   0   0   0   
      0   0   0   0   0   
      0   0   0   0   0   
      0   0   0   0   0   
      0   0   0   0   0   
      0   0   0   0   0   
      0   0   0   0   0   
      0   0   0   0   0   
      0   0   0   0   0   
      0   0   0   0   0   
      0   0   0   0   0   
      0   0   0   0   0   
      0   0   0   0   0   
      0   0   0   0   0   
      0   0   0   0   0   
      0   0   0   0   0   
      0   0   0   0   0   
      0   0   0   0   0   
      0   0   0   0   0   
      0   0   0   0   0   
      0   0   0   0   0   
      0   0   0   0   0   
      0   0   0   0   0   
      0   0   0   0   0   
      0   0   0   0   0   
      0   0   0   0   0   
      0   0   0   0   0   
      0   0   0   0   0   
      0   0   0   0   0   
      0   0   0   0   0   
      0   0   0   0   0   
      0   0   0   0   0   
      0   0   0   0   0   
      0   0   0   0   0   
      0   0   0   0   0   
      0   0   0   0   0   
      0   0   0   0   0   
      0   0   0   0   0   
      0   0   0   0   0   
      0   0   0   0   0   
      0   0   0   0   0   
      0   0   0   0   0   
      0   0   0   0   0   
      0   0   0   0   0   
      0   0   0   0   0   
      0   0   0   0   0   
      0   0   0   0   0   
      0   0   0   0   0   
      0   0   0   0   0   
      0   0   0   0   0   
      0   0   0   0   0   
      0   0   0   0   0   
      0   0   0   0   0   
      0   0   0   0   0   
      0   0   0   0   0   
      0   0   0   0   0   
      0   0   0   0   0   
      0   0   0   0   0   
      0   0   0   0   0   
      0   0   0   0   0   
      0   0   0   0   0   
      0.577680149299   0.577657907929   0.577591187676   0.577480000978   0.577324371453   
      0.577124338374   0.576879963188   0.576591338341   0.576258598739   0.575881936236   
      0.575461617574   0.574998006248   0.57449158875   0.573943005599   0.573353087444   
      0.572722896382   0.572053772299   0.571347383766   0.570605782489   0.56983145983   
      0.569027403286   0.568197150223   0.567344835571   0.566475229712   0.565593762503   
      0.564706529326   0.563820275336   0.562942354649   0.562080662218   0.561243537359   
      0.560439639436   0.559677797831   0.558966839967   0.558315402705   0.557731733653   
      0.557223489916   0.556797542259   0.556459792746   0.556215013529   0.556066713646   
      0.556017039548   0.556066713646   0.556215013529   0.556459792746   0.556797542259   
      0.557223489916   0.557731733653   0.558315402705   0.558966839967   0.559677797831   
      0.560439639436   0.561243537359   0.562080662218   0.562942354649   0.563820275336   
      0.564706529326   0.565593762503   0.566475229712   0.567344835571   0.568197150223   
      0.569027403286   0.56983145983   0.570605782489   0.571347383766   0.572053772299   
      0.572722896382   0.573353087444   0.573943005599   0.57449158875   0.574998006248   
      0.575461617574   0.575881936236   0.576258598739   0.576591338341   0.576879963188   
      0.577124338374   0.577324371453   0.577480000978   0.577591187676   0.577657907929   
      0.46775855342   0.467727843902   0.467635715405   0.467482169452   0.467267213163   
      0.466990866317   0.466653171619   0.466254208566   0.465794111367   0.46527309147   
      0.464691465311   0.464049687886   0.463348392741   0.462588438823   0.461770964489   
      0.460897448594   0.459969778196   0.45899032183   0.457962006624   0.456888396768   
      0.455773770022   0.454623188149   0.453442556473   0.452238667299   0.451019221725   
      0.449792824635   0.448568948306   0.447357861203   0.446170520099   0.44501842552   
      0.443913442611   0.442867591587   0.441892813859   0.441000721542   0.440202339182   
      0.439507847184   0.438926336496   0.438465583722   0.438131854955   0.4379297455   
      0.437862061191   0.4379297455   0.438131854955   0.438465583722   0.438926336496   
      0.439507847184   0.440202339182   0.441000721542   0.441892813859   0.442867591587   
      0.443913442611   0.44501842552   0.446170520099   0.447357861203   0.448568948306   
      0.449792824635   0.451019221725   0.452238667299   0.453442556473   0.454623188149   
      0.455773770022   0.456888396768   0.457962006624   0.45899032183   0.459969778196   
      0.460897448594   0.461770964489   0.462588438823   0.463348392741   0.464049687886   
      0.464691465311   0.46527309147   0.465794111367   0.466254208566   0.466653171619   
      0.466990866317   0.467267213163   0.467482169452   0.467635715405   0.467727843902   
      0.444889980308   0.444850022128   0.444730152953   0.444530390836   0.444250772469   
      0.443891363322   0.443452272347   0.442933671685   0.44233582198   0.441659103948   
      0.440904056887   0.440071424809   0.439162210747   0.438177739593   0.437119729485   
      0.435990371276   0.434792414996   0.43352926142   0.432205055984   0.430824781283   
      0.429394343466   0.427920646981   0.426411651519   0.424876404775   0.423325044869   
      0.421768767043   0.420219750616   0.418691043989   0.417196407773   0.415750118495   
      0.414366737757   0.413060853838   0.411846804369   0.410738389752   0.409748587385   
      0.408889276434   0.408170982141   0.407602647428   0.407191438188   0.406942587204   
      0.406859280315   0.406942587204   0.407191438188   0.407602647428   0.408170982141   
      0.408889276434   0.409748587385   0.410738389752   0.411846804369   0.413060853838   
      0.414366737757   0.415750118495   0.417196407773   0.418691043989   0.420219750616   
      0.421768767043   0.423325044869   0.424876404775   0.426411651519   0.427920646981   
      0.429394343466   0.430824781283   0.432205055984   0.43352926142   0.434792414996   
      0.435990371276   0.437119729485   0.438177739593   0.439162210747   0.440071424809   
      0.440904056887   0.441659103948   0.44233582198   0.442933671685   0.443452272347   
      0.443891363322   0.444250772469   0.444530390836   0.444730152953   0.444850022128   
      0.422303406065   0.422253931296   0.422105526083   0.421858250352   0.42151221284   
      0.421067584689   0.420524619046   0.419883677211   0.419145261982   0.418310058918   
      0.417378986194   0.416353253689   0.415234431684   0.414024529229   0.412726081723   
      0.411342246558   0.409876904808   0.408334765973   0.406721471647   0.40504369292   
      0.403309215333   0.401527004497   0.399707245221   0.397861347257   0.396001911691   
      0.394142653654   0.392298279175   0.390484316718   0.388716906739   0.387012555339   
      0.385387860411   0.383859220292   0.382442535727   0.381152915836   0.38000439785   
      0.379009688869   0.378179935933   0.377524528782   0.377050937799   0.376764588222   
      0.376668770758   0.376764588222   0.377050937799   0.377524528782   0.378179935933   
      0.379009688869   0.38000439785   0.381152915836   0.382442535727   0.383859220292   
      0.385387860411   0.387012555339   0.388716906739   0.390484316718   0.392298279175   
      0.394142653654   0.396001911691   0.397861347257   0.399707245221   0.401527004497   
      0.403309215333   0.40504369292   0.406721471647   0.408334765973   0.409876904808   
      0.411342246558   0.412726081723   0.414024529229   0.415234431684   0.416353253689   
      0.417378986194   0.418310058918   0.419145261982   0.419883677211   0.420524619046   
      0.421067584689   0.42151221284   0.421858250352   0.422105526083   0.422253931296   
      0.404579852312   0.404522868448   0.404351955243   0.404067231103   0.403668904274   
      0.403157289512   0.402532832041   0.401796139375   0.40094802165   0.399989541167   
      0.398922071746   0.397747368346   0.396467647017   0.395085674805   0.393604868486   
      0.392029400128   0.390364306431   0.388615597568   0.386790360116   0.384896847496   
      0.382944550586   0.380944240773   0.378907977982   0.376849077245   0.374782029141   
      0.372722371983   0.370686516663   0.368691528326   0.366754872167   0.364894133247   
      0.363126721882   0.361469576835   0.359938877971   0.358549778496   0.357316164562   
      0.35625044727   0.355363389305   0.354663965963   0.354159258458   0.353854376273   
      0.35375240496   0.353854376273   0.354159258458   0.354663965963   0.355363389305   
      0.35625044727   0.357316164562   0.358549778496   0.359938877971   0.361469576835   
      0.363126721882   0.364894133247   0.366754872167   0.368691528326   0.370686516663   
      0.372722371983   0.374782029141   0.376849077245   0.378907977982   0.380944240773   
      0.382944550586   0.384896847496   0.386790360116   0.388615597568   0.390364306431   
      0.392029400128   0.393604868486   0.395085674805   0.396467647017   0.397747368346   
      0.398922071746   0.399989541167   0.40094802165   0.401796139375   0.402532832041   
      0.403157289512   0.403668904274   0.404067231103   0.404351955243   0.404522868448   
      0.390602609661   0.390540261881   0.390353276683   0.390041832265   0.389606238259   
      0.38904695503   0.388364621312   0.38756009078   0.386634478168   0.385589215553   
      0.384426119271   0.383147467648   0.38175608926   0.380255460782   0.378649812585   
      0.376944239203   0.375144810514   0.373258678237   0.371294171093   0.369260871017   
      0.367169662267   0.365032745401   0.362863609011   0.360676953917   0.358488567187   
      0.356315146679   0.354174080467   0.352083189108   0.350060441709   0.34812365884   
      0.346290216075   0.344576761326   0.34299895726   0.341571257115   0.340306718802   
      0.339216858542   0.338311542053   0.337598908743   0.337085322751   0.336775344035   
      0.336671713086   0.336775344035   0.337085322751   0.337598908743   0.338311542053   
      0.339216858542   0.340306718802   0.341571257115   0.34299895726   0.344576761326   
      0.346290216075   0.34812365884   0.350060441709   0.352083189108   0.354174080467   
      0.356315146679   0.358488567187   0.360676953917   0.362863609011   0.365032745401   
      0.367169662267   0.369260871017   0.371294171093   0.373258678237   0.375144810514   
      0.376944239203   0.378649812585   0.380255460782   0.38175608926   0.383147467648   
      0.384426119271   0.385589215553   0.386634478168   0.38756009078   0.388364621312   
      0.38904695503   0.389606238259   0.390041832265   0.390353276683   0.390540261881   
      0.380451159943   0.380385344185   0.380187971752   0.379859271351   0.37939963821   
      0.378809655482   0.378090124849   0.377242106859   0.376266971588   0.375166460126   
      0.373942757187   0.372598574749   0.371137246047   0.369562828461   0.367880212763   
      0.366095235035   0.364214786176   0.362246912616   0.360200900672   0.358087336195   
      0.355918130962   0.353706507899   0.351466938759   0.349215030456   0.346967359586   
      0.344741258624   0.3425545613   0.34042531827   0.338371496904   0.336410680317   
      0.334559780574   0.332834779196   0.331250505037   0.329820455666   0.328556664153   
      0.327469609131   0.326568162665   0.325859568109   0.325349438886   0.325041769064   
      0.324938947498   0.325041769064   0.325349438886   0.325859568109   0.326568162665   
      0.327469609131   0.328556664153   0.329820455666   0.331250505037   0.332834779196   
      0.334559780574   0.336410680317   0.338371496904   0.34042531827   0.3425545613   
      0.344741258624   0.346967359586   0.349215030456   0.351466938759   0.353706507899   
      0.355918130962   0.358087336195   0.360200900672   0.362246912616   0.364214786176   
      0.366095235035   0.367880212763   0.369562828461   0.371137246047   0.372598574749   
      0.373942757187   0.375166460126   0.376266971588   0.377242106859   0.378090124849   
      0.378809655482   0.37939963821   0.379859271351   0.380187971752   0.380385344185   
      0.373906141672   0.373838300976   0.373634865565   0.373296099958   0.372822460089   
      0.372214616232   0.371473485719   0.37060027596   0.369596538287   0.368464233045   
      0.367205806044   0.365824276075   0.364323332488   0.362707440921   0.360981954163   
      0.359153223801   0.357228706917   0.355217060758   0.353128217226   0.350973428395   
      0.34876527443   0.346517626241   0.344245557341   0.341965202374   0.339693563685   
      0.337448271556   0.335247307918   0.333108706849   0.331050247469   0.329089155519   
      0.327241828917   0.325523599922   0.323948542704   0.322529330542   0.321277142257   
      0.32020161333   0.319310823882   0.318611313632   0.318108113059   0.31780478033   
      0.317703434843   0.31780478033   0.318108113059   0.318611313632   0.319310823882   
      0.32020161333   0.321277142257   0.322529330542   0.323948542704   0.325523599922   
      0.327241828917   0.329089155519   0.331050247469   0.333108706849   0.335247307918   
      0.337448271556   0.339693563685   0.341965202374   0.344245557341   0.346517626241   
      0.34876527443   0.350973428395   0.353128217226   0.355217060758   0.357228706917   
      0.359153223801   0.360981954163   0.362707440921   0.364323332488   0.365824276075   
      0.367205806044   0.368464233045   0.369596538287   0.37060027596   0.371473485719   
      0.372214616232   0.372822460089   0.373296099958   0.373634865565   0.373838300976   
      0.37071621739   0.370647451885   0.370441248163   0.37009788925   0.369617862464   
      0.369001883145   0.368250928481   0.367366281926   0.366349588701   0.365202922725   
      0.363928865015   0.362530593114   0.361011980368   0.359377702907   0.357633351018   
      0.355785540245   0.353842016098   0.351811744986   0.349704982892   0.347533312861   
      0.345309642627   0.34304815499   0.340764205862   0.338474168247   0.336195224505   
      0.333945113709   0.331741845084   0.329603391938   0.327547382531   0.325590804644   
      0.323749739186   0.322039135056   0.32047263327   0.319062443506   0.317819271448   
      0.316752291131   0.315869153331   0.315176019113   0.314677607034   0.314377242989   
      0.314276903188   0.314377242989   0.314677607034   0.315176019113   0.315869153331   
      0.316752291131   0.317819271448   0.319062443506   0.32047263327   0.322039135056   
      0.323749739186   0.325590804644   0.327547382531   0.329603391938   0.331741845084   
      0.333945113709   0.336195224505   0.338474168247   0.340764205862   0.34304815499   
      0.345309642627   0.347533312861   0.349704982892   0.351811744986   0.353842016098   
      0.355785540245   0.357633351018   0.359377702907   0.361011980368   0.362530593114   
      0.363928865015   0.365202922725   0.366349588701   0.367366281926   0.368250928481   
      0.369001883145   0.369617862464   0.37009788925   0.370441248163   0.370647451885   
      0.37071621739   0.370647451885   0.370441248163   0.37009788925   0.369617862464   
      0.369001883145   0.368250928481   0.367366281926   0.366349588701   0.365202922725   
      0.363928865015   0.362530593114   0.361011980368   0.359377702907   0.357633351018   
      0.355785540245   0.353842016098   0.351811744986   0.349704982892   0.347533312861   
      0.345309642627   0.34304815499   0.340764205862   0.338474168247   0.336195224505   
      0.333945113709   0.331741845084   0.329603391938   0.327547382531   0.325590804644   
      0.323749739186   0.322039135056   0.32047263327   0.319062443506   0.317819271448   
      0.316752291131   0.315869153331   0.315176019113   0.314677607034   0.314377242989   
      0.314276903188   0.314377242989   0.314677607034   0.315176019113   0.315869153331   
      0.316752291131   0.317819271448   0.319062443506   0.32047263327   0.322039135056   
      0.323749739186   0.325590804644   0.327547382531   0.329603391938   0.331741845084   
      0.333945113709   0.336195224505   0.338474168247   0.340764205862   0.34304815499   
      0.345309642627   0.347533312861   0.349704982892   0.351811744986   0.353842016098   
      0.355785540245   0.357633351018   0.359377702907   0.361011980368   0.362530593114   
      0.363928865015   0.365202922725   0.366349588701   0.367366281926   0.368250928481   
      0.369001883145   0.369617862464   0.37009788925   0.370441248163   0.370647451885   
      0.373906141672   0.373838300976   0.373634865565   0.373296099958   0.372822460089   
      0.372214616232   0.371473485719   0.37060027596   0.369596538287   0.368464233045   
      0.367205806044   0.365824276075   0.364323332488   0.362707440921   0.360981954163   
      0.359153223801   0.357228706917   0.355217060758   0.353128217226   0.350973428395   
      0.34876527443   0.346517626241   0.344245557341   0.341965202374   0.339693563685   
      0.337448271556   0.335247307918   0.333108706849   0.331050247469   0.329089155519   
      0.327241828917   0.325523599922   0.323948542704   0.322529330542   0.321277142257   
      0.32020161333   0.319310823882   0.318611313632   0.318108113059   0.31780478033   
      0.317703434843   0.31780478033   0.318108113059   0.318611313632   0.319310823882   
      0.32020161333   0.321277142257   0.322529330542   0.323948542704   0.325523599922   
      0.327241828917   0.329089155519   0.331050247469   0.333108706849   0.335247307918   
      0.337448271556   0.339693563685   0.341965202374   0.344245557341   0.346517626241   
      0.34876527443   0.350973428395   0.353128217226   0.355217060758   0.357228706917   
      0.359153223801   0.360981954163   0.362707440921   0.364323332488   0.365824276075   
      0.367205806044   0.368464233045   0.369596538287   0.37060027596   0.371473485719   
      0.372214616232   0.372822460089   0.373296099958   0.373634865565   0.373838300976   
      0.380451159943   0.380385344185   0.380187971752   0.379859271351   0.37939963821   
      0.378809655482   0.378090124849   0.377242106859   0.376266971588   0.375166460126   
      0.373942757187   0.372598574749   0.371137246047   0.369562828461   0.367880212763   
      0.366095235035   0.364214786176   0.362246912616   0.360200900672   0.358087336195   
      0.355918130962   0.353706507899   0.351466938759   0.349215030456   0.346967359586   
      0.344741258624   0.3425545613   0.34042531827   0.338371496904   0.336410680317   
      0.334559780574   0.332834779196   0.331250505037   0.329820455666   0.328556664153   
      0.327469609131   0.326568162665   0.325859568109   0.325349438886   0.325041769064   
      0.324938947498   0.325041769064   0.325349438886   0.325859568109   0.326568162665   
      0.327469609131   0.328556664153   0.329820455666   0.331250505037   0.332834779196   
      0.334559780574   0.336410680317   0.338371496904   0.34042531827   0.3425545613   
      0.344741258624   0.346967359586   0.349215030456   0.351466938759   0.353706507899   
      0.355918130962   0.358087336195   0.360200900672   0.362246912616   0.364214786176   
      0.366095235035   0.367880212763   0.369562828461   0.371137246047   0.372598574749   
      0.373942757187   0.375166460126   0.376266971588   0.377242106859   0.378090124849   
      0.378809655482   0.37939963821   0.379859271351   0.380187971752   0.380385344185   
      0.390602609661   0.390540261881   0.390353276683   0.390041832265   0.389606238259   
      0.38904695503   0.388364621312   0.38756009078   0.386634478168   0.385589215553   
      0.384426119271   0.383147467648   0.38175608926   0.380255460782   0.378649812585   
      0.376944239203   0.375144810514   0.373258678237   0.371294171093   0.369260871017   
      0.367169662267   0.365032745401   0.362863609011   0.360676953917   0.358488567187   
      0.356315146679   0.354174080467   0.352083189108   0.350060441709   0.34812365884   
      0.346290216075   0.344576761326   0.34299895726   0.341571257115   0.340306718802   
      0.339216858542   0.338311542053   0.337598908743   0.337085322751   0.336775344035   
      0.336671713086   0.336775344035   0.337085322751   0.337598908743   0.338311542053   
      0.339216858542   0.340306718802   0.341571257115   0.34299895726   0.344576761326   
      0.346290216075   0.34812365884   0.350060441709   0.352083189108   0.354174080467   
      0.356315146679   0.358488567187   0.360676953917   0.362863609011   0.365032745401   
      0.367169662267   0.369260871017   0.371294171093   0.373258678237   0.375144810514   
      0.376944239203   0.378649812585   0.380255460782   0.38175608926   0.383147467648   
      0.384426119271   0.385589215553   0.386634478168   0.38756009078   0.388364621312   
      0.38904695503   0.389606238259   0.390041832265   0.390353276683   0.390540261881   
      0.404579852312   0.404522868448   0.404351955243   0.404067231103   0.403668904274   
      0.403157289512   0.402532832041   0.401796139375   0.40094802165   0.399989541167   
      0.398922071746   0.397747368346   0.396467647017   0.395085674805   0.393604868486   
      0.392029400128   0.390364306431   0.388615597568   0.386790360116   0.384896847496   
      0.382944550586   0.380944240773   0.378907977982   0.376849077245   0.374782029141   
      0.372722371983   0.370686516663   0.368691528326   0.366754872167   0.364894133247   
      0.363126721882   0.361469576835   0.359938877971   0.358549778496   0.357316164562   
      0.35625044727   0.355363389305   0.354663965963   0.354159258458   0.353854376273   
      0.35375240496   0.353854376273   0.354159258458   0.354663965963   0.355363389305   
      0.35625044727   0.357316164562   0.358549778496   0.359938877971   0.361469576835   
      0.363126721882   0.364894133247   0.366754872167   0.368691528326   0.370686516663   
      0.372722371983   0.374782029141   0.376849077245   0.378907977982   0.380944240773   
      0.382944550586   0.384896847496   0.386790360116   0.388615597568   0.390364306431   
      0.392029400128   0.393604868486   0.395085674805   0.396467647017   0.397747368346   
      0.398922071746   0.399989541167   0.40094802165   0.401796139375   0.402532832041   
      0.403157289512   0.403668904274   0.404067231103   0.404351955243   0.404522868448   
      0.422303406065   0.422253931296   0.422105526083   0.421858250352   0.42151221284   