<?xml version="1.0"?>
<VTKFile type="ImageData" version="0.1" byte_order="LittleEndian">
  <ImageData WholeExtent="0 79 0 19 0 19" Origin="0 0 0" Spacing="1 1 1">
  <Piece Extent="0 79 0 19 0 19">
    <PointData Scalars="density">
       <DataArray type="Float32" Name="bluedensity" NumberOfComponents="1" format="ascii">
      0   0   0   0   0   
      0   0   0   0   0   
      0   0   0   0   0   
      0   0   0   0   0   
      0   0   0   0   0   
      0   0   0   0   0   
      0   0   0   0   0   
      0   0   0   0   0   
      0   0   0   0   0   
      0   0   0   0   0   
      0   0   0   0   0   
      0   0   0   0   0   
      0   0   0   0   0   
      0   0   0   0   0   
      0   0   0   0   0   
      0   0   0   0   0   
      0   0   0   0   0   
      0   0   0   0   0   
      0   0   0   0   0   
      0   0   0   0   0   
      0   0   0   0   0   
      0   0   0   0   0   
      0   0   0   0   0   
      0   0   0   0   0   
      0   0   0   0   0   
      0   0   0   0   0   
      0   0   0   0   0   
      0   0   0   0   0   
      0   0   0   0   0   
      0   0   0   0   0   
      0   0   0   0   0   
      0   0   0   0   0   
      0   0   0   0   0   
      0   0   0   0   0   
      0   0   0   0   0   
      0   0   0   0   0   
      0   0   0   0   0   
      0   0   0   0   0   
      0   0   0   0   0   
      0   0   0   0   0   
      0   0   0   0   0   
      0   0   0   0   0   
      0   0   0   0   0   
      0   0   0   0   0   
      0   0   0   0   0   
      0   0   0   0   0   
      0   0   0   0   0   
      0   0   0   0   0   
      0   0   0   0   0   
      0   0   0   0   0   
      0   0   0   0   0   
      0   0   0   0   0   
      0   0   0   0   0   
      0   0   0   0   0   
      0   0   0   0   0   
      0   0   0   0   0   
      0   0   0   0   0   
      0   0   0   0   0   
      0   0   0   0   0   
      0   0   0   0   0   
      0   0   0   0   0   
      0   0   0   0   0   
      0   0   0   0   0   
      0   0   0   0   0   
      0   0   0   0   0   
      0   0   0   0   0   
      0   0   0   0   0   
      0   0   0   0   0   
      0   0   0   0   0   
      0   0   0   0   0   
      0   0   0   0   0   
      0   0   0   0   0   
      0   0   0   0   0   
      0   0   0   0   0   
      0   0   0   0   0   
      0   0   0   0   0   
      0   0   0   0   0   
      0   0   0   0   0   
      0   0   0   0   0   
      0   0   0   0   0   
      0   0   0   0   0   
      0   0   0   0   0   
      0   0   0   0   0   
      0   0   0   0   0   
      0   0   0   0   0   
      0   0   0   0   0   
      0   0   0   0   0   
      0   0   0   0   0   
      0   0   0   0   0   
      0   0   0   0   0   
      0   0   0   0   0   
      0   0   0   0   0   
      0   0   0   0   0   
      0   0   0   0   0   
      0   0   0   0   0   
      0   0   0   0   0   
      0   0   0   0   0   
      0   0   0   0   0   
      0   0   0   0   0   
      0   0   0   0   0   
      0   0   0   0   0   
      0   0   0   0   0   
      0   0   0   0   0   
      0   0   0   0   0   
      0   0   0   0   0   
      0   0   0   0   0   
      0   0   0   0   0   
      0   0   0   0   0   
      0   0   0   0   0   
      0   0   0   0   0   
      0   0   0   0   0   
      0   0   0   0   0   
      0   0   0   0   0   
      0   0   0   0   0   
      0   0   0   0   0   
      0   0   0   0   0   
      0   0   0   0   0   
      0   0   0   0   0   
      0   0   0   0   0   
      0   0   0   0   0   
      0   0   0   0   0   
      0   0   0   0   0   
      0   0   0   0   0   
      0   0   0   0   0   
      0   0   0   0   0   
      0   0   0   0   0   
      0   0   0   0   0   
      0   0   0   0   0   
      0   0   0   0   0   
      0   0   0   0   0   
      0   0   0   0   0   
      0   0   0   0   0   
      0   0   0   0   0   
      0   0   0   0   0   
      0   0   0   0   0   
      0   0   0   0   0   
      0   0   0   0   0   
      0   0   0   0   0   
      0   0   0   0   0   
      0   0   0   0   0   
      0   0   0   0   0   
      0   0   0   0   0   
      0   0   0   0   0   
      0   0   0   0   0   
      0   0   0   0   0   
      0   0   0   0   0   
      0   0   0   0   0   
      0   0   0   0   0   
      0   0   0   0   0   
      0   0   0   0   0   
      0   0   0   0   0   
      0   0   0   0   0   
      0   0   0   0   0   
      0   0   0   0   0   
      0   0   0   0   0   
      0   0   0   0   0   
      0   0   0   0   0   
      0   0   0   0   0   
      0   0   0   0   0   
      0   0   0   0   0   
      0   0   0   0   0   
      0   0   0   0   0   
      0   0   0   0   0   
      0   0   0   0   0   
      0   0   0   0   0   
      0   0   0   0   0   
      0   0   0   0   0   
      0   0   0   0   0   
      0   0   0   0   0   
      0   0   0   0   0   
      0   0   0   0   0   
      0   0   0   0   0   
      0   0   0   0   0   
      0   0   0   0   0   
      0   0   0   0   0   
      0   0   0   0   0   
      0   0   0   0   0   
      0   0   0   0   0   
      0   0   0   0   0   
      0   0   0   0   0   
      0   0   0   0   0   
      0   0   0   0   0   
      0   0   0   0   0   
      0   0   0   0   0   
      0   0   0   0   0   
      0   0   0   0   0   
      0   0   0   0   0   
      0   0   0   0   0   
      0   0   0   0   0   
      0   0   0   0   0   
      0   0   0   0   0   
      0   0   0   0   0   
      0   0   0   0   0   
      0   0   0   0   0   
      0   0   0   0   0   
      0   0   0   0   0   
      0   0   0   0   0   
      0   0   0   0   0   
      0   0   0   0   0   
      0   0   0   0   0   
      0   0   0   0   0   
      0   0   0   0   0   
      0   0   0   0   0   
      0   0   0   0   0   
      0   0   0   0   0   
      0   0   0   0   0   
      0   0   0   0   0   
      0   0   0   0   0   
      0   0   0   0   0   
      0   0   0   0   0   
      0   0   0   0   0   
      0   0   0   0   0   
      0   0   0   0   0   
      0   0   0   0   0   
      0   0   0   0   0   
      0   0   0   0   0   
      0   0   0   0   0   
      0   0   0   0   0   
      0   0   0   0   0   
      0   0   0   0   0   
      0   0   0   0   0   
      0   0   0   0   0   
      0   0   0   0   0   
      0   0   0   0   0   
      0   0   0   0   0   
      0   0   0   0   0   
      0   0   0   0   0   
      0   0   0   0   0   
      0   0   0   0   0   
      0   0   0   0   0   
      0   0   0   0   0   
      0   0   0   0   0   
      0   0   0   0   0   
      0   0   0   0   0   
      0   0   0   0   0   
      0   0   0   0   0   
      0   0   0   0   0   
      0   0   0   0   0   
      0   0   0   0   0   
      0   0   0   0   0   
      0   0   0   0   0   
      0   0   0   0   0   
      0   0   0   0   0   
      0   0   0   0   0   
      0   0   0   0   0   
      0   0   0   0   0   
      0   0   0   0   0   
      0   0   0   0   0   
      0   0   0   0   0   
      0   0   0   0   0   
      0   0   0   0   0   
      0   0   0   0   0   
      0   0   0   0   0   
      0   0   0   0   0   
      0   0   0   0   0   
      0   0   0   0   0   
      0   0   0   0   0   
      0   0   0   0   0   
      0   0   0   0   0   
      0   0   0   0   0   
      0   0   0   0   0   
      0   0   0   0   0   
      0   0   0   0   0   
      0   0   0   0   0   
      0   0   0   0   0   
      0   0   0   0   0   
      0   0   0   0   0   
      0   0   0   0   0   
      0   0   0   0   0   
      0   0   0   0   0   
      0   0   0   0   0   
      0   0   0   0   0   
      0   0   0   0   0   
      0   0   0   0   0   
      0   0   0   0   0   
      0   0   0   0   0   
      0   0   0   0   0   
      0   0   0   0   0   
      0   0   0   0   0   
      0   0   0   0   0   
      0   0   0   0   0   
      0   0   0   0   0   
      0   0   0   0   0   
      0   0   0   0   0   
      0   0   0   0   0   
      0   0   0   0   0   
      0   0   0   0   0   
      0   0   0   0   0   
      0   0   0   0   0   
      0   0   0   0   0   
      0   0   0   0   0   
      0   0   0   0   0   
      0   0   0   0   0   
      0   0   0   0   0   
      0   0   0   0   0   
      0   0   0   0   0   
      0   0   0   0   0   
      0   0   0   0   0   
      0   0   0   0   0   
      0   0   0   0   0   
      0   0   0   0   0   
      0   0   0   0   0   
      0   0   0   0   0   
      0   0   0   0   0   
      0   0   0   0   0   
      0   0   0   0   0   
      0   0   0   0   0   
      0   0   0   0   0   
      0   0   0   0   0   
      0   0   0   0   0   
      0   0   0   0   0   
      0   0   0   0   0   
      0   0   0   0   0   
      0   0   0   0   0   
      0   0   0   0   0   
      0   0   0   0   0   
      0   0   0   0   0   
      0   0   0   0   0   
      0   0   0   0   0   
      0   0   0   0   0   
      0   0   0   0   0   
      0   0   0   0   0   
      0   0   0   0   0   
      0   0   0   0   0   
      0   0   0   0   0   
      0   0   0   0   0   
      0   0   0   0   0   
      0   0   0   0   0   
      0   0   0   0   0   
      0   0   0   0   0   
      0   0   0   0   0   
      0   0   0   0   0   
      0   0   0   0   0   
      0   0   0   0   0   
      0   0   0   0   0   
      0   0   0   0   0   
      0.57324260033   0.573230944612   0.573196011974   0.573137906339   0.573056802202   
      0.572952946548   0.572826661508   0.572678347736   0.572508488446   0.572317654066   
      0.572106507433   0.57187580942   0.571626424871   0.571359328699   0.571075611944   
      0.570776487573   0.570463295751   0.570137508303   0.569800732016   0.56945471044   
      0.569101323813   0.568742586726   0.568380643178   0.568017758663   0.567656309027   
      0.567298765865   0.566947678334   0.566605651384   0.566275320516   0.565959323329   
      0.565660268256   0.56538070106   0.565123069741   0.5648896887   0.564682703025   
      0.564504053869   0.564355445919   0.564238317888   0.564153816973   0.564102778064   
      0.564085708383   0.564102778064   0.564153816973   0.564238317888   0.564355445919   
      0.564504053869   0.564682703025   0.5648896887   0.565123069741   0.56538070106   
      0.565660268256   0.565959323329   0.566275320516   0.566605651384   0.566947678334   
      0.567298765865   0.567656309027   0.568017758663   0.568380643178   0.568742586726   
      0.569101323813   0.56945471044   0.569800732016   0.570137508303   0.570463295751   
      0.570776487573   0.571075611944   0.571359328699   0.571626424871   0.57187580942   
      0.572106507433   0.572317654066   0.572508488446   0.572678347736   0.572826661508   
      0.572952946548   0.573056802202   0.573137906339   0.573196011974   0.573230944612   
      0.46138261719   0.461366450179   0.461317996586   0.461237399312   0.461124898414   
      0.460980833933   0.460805649792   0.460599898743   0.460364248269   0.460099487372   
      0.459806534109   0.459486443731   0.459140417223   0.458769810013   0.458376140569   
      0.457961098534   0.457526552034   0.457074553715   0.456607345051   0.456127358413   
      0.455637216398   0.455139727891   0.454637880404   0.454134828224   0.453633876052   
      0.453138457867   0.45265211092   0.45217844489   0.451721106442   0.451283739598   
      0.450869942511   0.450483221446   0.450126942916   0.449804285058   0.449518189457   
      0.449271314682   0.449065992796   0.448904190081   0.448787473145   0.448716981407   
      0.448693406813   0.448716981407   0.448787473145   0.448904190081   0.449065992796   
      0.449271314682   0.449518189457   0.449804285058   0.450126942916   0.450483221446   
      0.450869942511   0.451283739598   0.451721106442   0.45217844489   0.45265211092   
      0.453138457867   0.453633876052   0.454134828224   0.454637880404   0.455139727891   
      0.455637216398   0.456127358413   0.456607345051   0.457074553715   0.457526552034   
      0.457961098534   0.458376140569   0.458769810013   0.459140417223   0.459486443731   
      0.459806534109   0.460099487372   0.460364248269   0.460599898743   0.460805649792   
      0.460980833933   0.461124898414   0.461237399312   0.461317996586   0.461366450179   
      0.436452790686   0.43643188   0.436369211878   0.436264978849   0.436119504214   
      0.435933245631   0.435706800072   0.435440910068   0.435136471142   0.434794540289   
      0.434416345332   0.434003294915   0.433556988886   0.43307922871   0.432572027551   
      0.432037619561   0.431478467885   0.430897270817   0.430296965542   0.429680728822   
      0.429051974038   0.428414343982   0.427771698871   0.427128099118   0.426487782533   
      0.425855135751   0.425234659883   0.424630930556   0.424048552741   0.423492110967   
      0.422966115747   0.422474947201   0.422022797067   0.421613610387   0.421251028262   
      0.420938333079   0.420678397644   0.420473639533   0.420325981908   0.420236821853   
      0.420207007109   0.420236821853   0.420325981908   0.420473639533   0.420678397644   
      0.420938333079   0.421251028262   0.421613610387   0.422022797067   0.422474947201   
      0.422966115747   0.423492110967   0.424048552741   0.424630930556   0.425234659883   
      0.425855135751   0.426487782533   0.427128099118   0.427771698871   0.428414343982   
      0.429051974038   0.429680728822   0.430296965542   0.430897270817   0.431478467885   
      0.432037619561   0.432572027551   0.43307922871   0.433556988886   0.434003294915   
      0.434416345332   0.434794540289   0.435136471142   0.435440910068   0.435706800072   
      0.435933245631   0.436119504214   0.436264978849   0.436369211878   0.43643188   
      0.411766230195   0.411740606052   0.411663816636   0.411536111837   0.411357910968   
      0.411129806962   0.410852572136   0.410527165436   0.410154740985   0.409736657763   
      0.409274490168   0.408770039157   0.408225343603   0.407642691445   0.40702463014   
      0.406373975858   0.405693820815   0.404987538088   0.404258783219   0.403511491951   
      0.402749873388   0.401978398006   0.401201779977   0.400424953394   0.399653042176   
      0.398891323576   0.398145185456   0.397420077688   0.3967214583   0.396054735167   
      0.395425204277   0.394837985761   0.394297958996   0.393809698203   0.393377409964   
      0.393004874113   0.392695389355   0.392451724902   0.392276079255   0.392170047098   
      0.392134595089   0.392170047098   0.392276079255   0.392451724902   0.392695389355   
      0.393004874113   0.393377409964   0.393809698203   0.394297958996   0.394837985761   
      0.395425204277   0.396054735167   0.3967214583   0.397420077688   0.398145185456   
      0.398891323576   0.399653042176   0.400424953394   0.401201779977   0.401978398006   
      0.402749873388   0.403511491951   0.404258783219   0.404987538088   0.405693820815   
      0.406373975858   0.40702463014   0.407642691445   0.408225343603   0.408770039157   
      0.409274490168   0.409736657763   0.410154740985   0.410527165436   0.410852572136   
      0.411129806962   0.411357910968   0.411536111837   0.411663816636   0.411740606052   
      0.392402916713   0.392373747895   0.39228634175   0.392141000114   0.391938229085   
      0.391678743508   0.391363473118   0.390993570199   0.390570418567   0.39009564363   
      0.389571123212   0.388998998782   0.388381686636   0.387721888532   0.387022601194   
      0.386287124063   0.385519064601   0.384722340437   0.383901177635   0.383060104393   
      0.3822039395   0.381337775028   0.380466952795   0.379597034352   0.378733764394   
      0.377883027744   0.377050800258   0.376243094252   0.375465899239   0.374725119002   
      0.374026506137   0.373375595379   0.372777637027   0.372237531878   0.371759768986   
      0.371348367548   0.371006824076   0.370738065917   0.370544411989   0.370427541499   
      0.370388471183   0.370427541499   0.370544411989   0.370738065917   0.371006824076   
      0.371348367548   0.371759768986   0.372237531878   0.372777637027   0.373375595379   
      0.374026506137   0.374725119002   0.375465899239   0.376243094252   0.377050800258   
      0.377883027744   0.378733764394   0.379597034352   0.380466952795   0.381337775028   
      0.3822039395   0.383060104393   0.383901177635   0.384722340437   0.385519064601   
      0.386287124063   0.387022601194   0.387721888532   0.388381686636   0.388998998782   
      0.389571123212   0.39009564363   0.390570418567   0.390993570199   0.391363473118   
      0.391678743508   0.391938229085   0.392141000114   0.39228634175   0.392373747895   
      0.377267425318   0.377235854169   0.377141255106   0.376983972211   0.376764582055   
      0.37648389826   0.376142977718   0.375743128297   0.375285917796   0.37477318386   
      0.374207044486   0.373589908694   0.372924486862   0.372213800139   0.37146118832   
      0.370670315474   0.36984517262   0.368990076695   0.368109665118   0.367208885254   
      0.36629297821   0.365367456497   0.364438075254   0.363510796925   0.362591749505   
      0.361687178669   0.36080339438   0.35994671274   0.359123394073   0.358339578363   
      0.357601219309   0.356914018274   0.356283359446   0.355714247455   0.355211248628   
      0.354778436913   0.35441934539   0.354136924109   0.353933504863   0.353810773362   
      0.353769749129   0.353810773362   0.353933504863   0.354136924109   0.35441934539   
      0.354778436913   0.355211248628   0.355714247455   0.356283359446   0.356914018274   
      0.357601219309   0.358339578363   0.359123394073   0.35994671274   0.36080339438   
      0.361687178669   0.362591749505   0.363510796925   0.364438075254   0.365367456497   
      0.36629297821   0.367208885254   0.368109665118   0.368990076695   0.36984517262   
      0.370670315474   0.37146118832   0.372213800139   0.372924486862   0.373589908694   
      0.374207044486   0.37477318386   0.375285917796   0.375743128297   0.376142977718   
      0.37648389826   0.376764582055   0.376983972211   0.377141255106   0.377235854169   
      0.366376348214   0.366343314045   0.366244336265   0.366079789994   0.36585030351   
      0.365556762781   0.365200317601   0.364782389155   0.364304678725   0.363769177217   
      0.363178175097   0.362534272266   0.361840387313   0.361099765525   0.360315984993   
      0.35949296008   0.358634941509   0.357746512349   0.356832579193   0.355898357902   
      0.354949353423   0.353991333318   0.353030294827   0.352072425539   0.351124057917   
      0.350191618224   0.349281570557   0.348400356957   0.347554334682   0.346749711861   
      0.345992482803   0.345288364222   0.344642733614   0.344060570867   0.343546404102   
      0.343104260542   0.342737623045   0.342449392802   0.342241858509   0.342116672249   
      0.342074832202   0.342116672249   0.342241858509   0.342449392802   0.342737623045   
      0.343104260542   0.343546404102   0.344060570867   0.344642733614   0.345288364222   
      0.345992482803   0.346749711861   0.347554334682   0.348400356957   0.349281570557   
      0.350191618224   0.351124057917   0.352072425539   0.353030294827   0.353991333318   
      0.354949353423   0.355898357902   0.356832579193   0.357746512349   0.358634941509   
      0.35949296008   0.360315984993   0.361099765525   0.361840387313   0.362534272266   
      0.363178175097   0.363769177217   0.364304678725   0.364782389155   0.365200317601   
      0.365556762781   0.36585030351   0.366079789994   0.366244336265   0.366343314045   
      0.359404933806   0.359371095376   0.359269711562   0.35910117771   0.358866155775   
      0.358565578771   0.358200656802   0.357772884436   0.357284049134   0.356736240393   
      0.356131859137   0.355473626871   0.354764594001   0.354008146668   0.353208011416   
      0.352368256932   0.351493292131   0.350587859854   0.34965702552   0.348706160139   
      0.347740917275   0.346767203667   0.345791143466   0.344819036248   0.343857309214   
      0.342912464208   0.341991020431   0.34109945388   0.340244134693   0.339431263654   
      0.338666809138   0.337956445716   0.337305495556   0.336718873605   0.336201037365   
      0.33575594189   0.33538700045   0.335097051136   0.33488832955   0.334762447618   
      0.334720378511   0.334762447618   0.33488832955   0.335097051136   0.33538700045   
      0.33575594189   0.336201037365   0.336718873605   0.337305495556   0.337956445716   
      0.338666809138   0.339431263654   0.340244134693   0.34109945388   0.341991020431   
      0.342912464208   0.343857309214   0.344819036248   0.345791143466   0.346767203667   
      0.347740917275   0.348706160139   0.34965702552   0.350587859854   0.351493292131   
      0.352368256932   0.353208011416   0.354008146668   0.354764594001   0.355473626871   
      0.356131859137   0.356736240393   0.357284049134   0.357772884436   0.358200656802   
      0.358565578771   0.358866155775   0.35910117771   0.359269711562   0.359371095376   
      0.356022282763   0.355988094292   0.355885663681   0.355715396245   0.355477970525   
      0.355174342689   0.354805752483   0.354373730487   0.353880106372   0.353327017804   
      0.352716919518   0.352052592049   0.351337149517   0.350574045809   0.34976707843   
      0.348920389309   0.348038461783   0.347126113075   0.346188481593   0.345231008511   
      0.344259413243   0.343279662583   0.34229793351   0.341320569896   0.340354033591   
      0.339404850584   0.338479553176   0.337584619243   0.336726409809   0.335911106199   
      0.335144648039   0.334432673302   0.333780461488   0.333192880841   0.332674340345   
      0.332228747019   0.331859468852   0.331569303545   0.331360453118   0.331234504304   
      0.331192414664   0.331234504304   0.331360453118   0.331569303545   0.331859468852   
      0.332228747019   0.332674340345   0.333192880841   0.333780461488   0.334432673302   
      0.335144648039   0.335911106199   0.336726409809   0.337584619243   0.338479553176   
      0.339404850584   0.340354033591   0.341320569896   0.34229793351   0.343279662583   
      0.344259413243   0.345231008511   0.346188481593   0.347126113075   0.348038461783   
      0.348920389309   0.34976707843   0.350574045809   0.351337149517   0.352052592049   
      0.352716919518   0.353327017804   0.353880106372   0.354373730487   0.354805752483   
      0.355174342689   0.355477970525   0.355715396245   0.355885663681   0.355988094292   
      0.356022282763   0.355988094292   0.355885663681   0.355715396245   0.355477970525   
      0.355174342689   0.354805752483   0.354373730487   0.353880106372   0.353327017804   
      0.352716919518   0.352052592049   0.351337149517   0.350574045809   0.34976707843   
      0.348920389309   0.348038461783   0.347126113075   0.346188481593   0.345231008511   
      0.344259413243   0.343279662583   0.34229793351   0.341320569896   0.340354033591   
      0.339404850584   0.338479553176   0.337584619243   0.336726409809   0.335911106199   
      0.335144648039   0.334432673302   0.333780461488   0.333192880841   0.332674340345   
      0.332228747019   0.331859468852   0.331569303545   0.331360453118   0.331234504304   
      0.331192414664   0.331234504304   0.331360453118   0.331569303545   0.331859468852   
      0.332228747019   0.332674340345   0.333192880841   0.333780461488   0.334432673302   
      0.335144648039   0.335911106199   0.336726409809   0.337584619243   0.338479553176   
      0.339404850584   0.340354033591   0.341320569896   0.34229793351   0.343279662583   
      0.344259413243   0.345231008511   0.346188481593   0.347126113075   0.348038461783   
      0.348920389309   0.34976707843   0.350574045809   0.351337149517   0.352052592049   
      0.352716919518   0.353327017804   0.353880106372   0.354373730487   0.354805752483   
      0.355174342689   0.355477970525   0.355715396245   0.355885663681   0.355988094292   
      0.359404933806   0.359371095376   0.359269711562   0.35910117771   0.358866155775   
      0.358565578771   0.358200656802   0.357772884436   0.357284049134   0.356736240393   
      0.356131859137   0.355473626871   0.354764594001   0.354008146668   0.353208011416   
      0.352368256932   0.351493292131   0.350587859854   0.34965702552   0.348706160139   
      0.347740917275   0.346767203667   0.345791143466   0.344819036248   0.343857309214   
      0.342912464208   0.341991020431   0.34109945388   0.340244134693   0.339431263654   
      0.338666809138   0.337956445716   0.337305495556   0.336718873605   0.336201037365   
      0.33575594189   0.33538700045   0.335097051136   0.33488832955   0.334762447618   
      0.334720378511   0.334762447618   0.33488832955   0.335097051136   0.33538700045   
      0.33575594189   0.336201037365   0.336718873605   0.337305495556   0.337956445716   
      0.338666809138   0.339431263654   0.340244134693   0.34109945388   0.341991020431   
      0.342912464208   0.343857309214   0.344819036248   0.345791143466   0.346767203667   
      0.347740917275   0.348706160139   0.34965702552   0.350587859854   0.351493292131   
      0.352368256932   0.353208011416   0.354008146668   0.354764594001   0.355473626871   
      0.356131859137   0.356736240393   0.357284049134   0.357772884436   0.358200656802   
      0.358565578771   0.358866155775   0.35910117771   0.359269711562   0.359371095376   
      0.366376348214   0.366343314045   0.366244336265   0.366079789994   0.36585030351   
      0.365556762781   0.365200317601   0.364782389155   0.364304678725   0.363769177217   
      0.363178175097   0.362534272266   0.361840387313   0.361099765525   0.360315984993   
      0.35949296008   0.358634941509   0.357746512349   0.356832579193   0.355898357902   
      0.354949353423   0.353991333318   0.353030294827   0.352072425539   0.351124057917   
      0.350191618224   0.349281570557   0.348400356957   0.347554334682   0.346749711861   
      0.345992482803   0.345288364222   0.344642733614   0.344060570867   0.343546404102   
      0.343104260542   0.342737623045   0.342449392802   0.342241858509   0.342116672249   
      0.342074832202   0.342116672249   0.342241858509   0.342449392802   0.342737623045   
      0.343104260542   0.343546404102   0.344060570867   0.344642733614   0.345288364222   
      0.345992482803   0.346749711861   0.347554334682   0.348400356957   0.349281570557   
      0.350191618224   0.351124057917   0.352072425539   0.353030294827   0.353991333318   
      0.354949353423   0.355898357902   0.356832579193   0.357746512349   0.358634941509   
      0.35949296008   0.360315984993   0.361099765525   0.361840387313   0.362534272266   
      0.363178175097   0.363769177217   0.364304678725   0.364782389155   0.365200317601   
      0.365556762781   0.36585030351   0.366079789994   0.366244336265   0.366343314045   
      0.377267425318   0.377235854169   0.377141255106   0.376983972211   0.376764582055   
      0.37648389826   0.376142977718   0.375743128297   0.375285917796   0.37477318386   
      0.374207044486   0.373589908694   0.372924486862   0.372213800139   0.37146118832   
      0.370670315474   0.36984517262   0.368990076695   0.368109665118   0.367208885254   
      0.36629297821   0.365367456497   0.364438075254   0.363510796925   0.362591749505   
      0.361687178669   0.36080339438   0.35994671274   0.359123394073   0.358339578363   
      0.357601219309   0.356914018274   0.356283359446   0.355714247455   0.355211248628   
      0.354778436913   0.35441934539   0.354136924109   0.353933504863   0.353810773362   
      0.353769749129   0.353810773362   0.353933504863   0.354136924109   0.35441934539   
      0.354778436913   0.355211248628   0.355714247455   0.356283359446   0.356914018274   
      0.357601219309   0.358339578363   0.359123394073   0.35994671274   0.36080339438   
      0.361687178669   0.362591749505   0.363510796925   0.364438075254   0.365367456497   
      0.36629297821   0.367208885254   0.368109665118   0.368990076695   0.36984517262   
      0.370670315474   0.37146118832   0.372213800139   0.372924486862   0.373589908694   
      0.374207044486   0.37477318386   0.375285917796   0.375743128297   0.376142977718   
      0.37648389826   0.376764582055   0.376983972211   0.377141255106   0.377235854169   
      0.392402916713   0.392373747895   0.39228634175   0.392141000114   0.391938229085   
      0.391678743508   0.391363473118   0.390993570199   0.390570418567   0.39009564363   
      0.389571123212   0.388998998782   0.388381686636   0.387721888532   0.387022601194   
      0.386287124063   0.385519064601   0.384722340437   0.383901177635   0.383060104393   
      0.3822039395   0.381337775028   0.380466952795   0.379597034352   0.378733764394   
      0.377883027744   0.377050800258   0.376243094252   0.375465899239   0.374725119002   
      0.374026506137   0.373375595379   0.372777637027   0.372237531878   0.371759768986   
      0.371348367548   0.371006824076   0.370738065917   0.370544411989   0.370427541499   
      0.370388471183   0.370427541499   0.370544411989   0.370738065917   0.371006824076   
      0.371348367548   0.371759768986   0.372237531878   0.372777637027   0.373375595379   
      0.374026506137   0.374725119002   0.375465899239   0.376243094252   0.377050800258   
      0.377883027744   0.378733764394   0.379597034352   0.380466952795   0.381337775028   
      0.3822039395   0.383060104393   0.383901177635   0.384722340437   0.385519064601   
      0.386287124063   0.387022601194   0.387721888532   0.388381686636   0.388998998782   
      0.389571123212   0.39009564363   0.390570418567   0.390993570199   0.391363473118   
      0.391678743508   0.391938229085   0.392141000114   0.39228634175   0.392373747895   
      0.411766230195   0.411740606052   0.411663816636   0.411536111837   0.411357910968   