<?xml version="1.0"?>
<VTKFile type="ImageData" version="0.1" byte_order="LittleEndian">
  <ImageData WholeExtent="0 79 0 19 0 19" Origin="0 0 0" Spacing="1 1 1">
  <Piece Extent="0 79 0 19 0 19">
    <PointData Scalars="density">
       <DataArray type="Float32" Name="bluedensity" NumberOfComponents="1" format="ascii">
      0   0   0   0   0   
      0   0   0   0   0   
      0   0   0   0   0   
      0   0   0   0   0   
      0   0   0   0   0   
      0   0   0   0   0   
      0   0   0   0   0   
      0   0   0   0   0   
      0   0   0   0   0   
      0   0   0   0   0   
      0   0   0   0   0   
      0   0   0   0   0   
      0   0   0   0   0   
      0   0   0   0   0   
      0   0   0   0   0   
      0   0   0   0   0   
      0   0   0   0   0   
      0   0   0   0   0   
      0   0   0   0   0   
      0   0   0   0   0   
      0   0   0   0   0   
      0   0   0   0   0   
      0   0   0   0   0   
      0   0   0   0   0   
      0   0   0   0   0   
      0   0   0   0   0   
      0   0   0   0   0   
      0   0   0   0   0   
      0   0   0   0   0   
      0   0   0   0   0   
      0   0   0   0   0   
      0   0   0   0   0   
      0   0   0   0   0   
      0   0   0   0   0   
      0   0   0   0   0   
      0   0   0   0   0   
      0   0   0   0   0   
      0   0   0   0   0   
      0   0   0   0   0   
      0   0   0   0   0   
      0   0   0   0   0   
      0   0   0   0   0   
      0   0   0   0   0   
      0   0   0   0   0   
      0   0   0   0   0   
      0   0   0   0   0   
      0   0   0   0   0   
      0   0   0   0   0   
      0   0   0   0   0   
      0   0   0   0   0   
      0   0   0   0   0   
      0   0   0   0   0   
      0   0   0   0   0   
      0   0   0   0   0   
      0   0   0   0   0   
      0   0   0   0   0   
      0   0   0   0   0   
      0   0   0   0   0   
      0   0   0   0   0   
      0   0   0   0   0   
      0   0   0   0   0   
      0   0   0   0   0   
      0   0   0   0   0   
      0   0   0   0   0   
      0   0   0   0   0   
      0   0   0   0   0   
      0   0   0   0   0   
      0   0   0   0   0   
      0   0   0   0   0   
      0   0   0   0   0   
      0   0   0   0   0   
      0   0   0   0   0   
      0   0   0   0   0   
      0   0   0   0   0   
      0   0   0   0   0   
      0   0   0   0   0   
      0   0   0   0   0   
      0   0   0   0   0   
      0   0   0   0   0   
      0   0   0   0   0   
      0   0   0   0   0   
      0   0   0   0   0   
      0   0   0   0   0   
      0   0   0   0   0   
      0   0   0   0   0   
      0   0   0   0   0   
      0   0   0   0   0   
      0   0   0   0   0   
      0   0   0   0   0   
      0   0   0   0   0   
      0   0   0   0   0   
      0   0   0   0   0   
      0   0   0   0   0   
      0   0   0   0   0   
      0   0   0   0   0   
      0   0   0   0   0   
      0   0   0   0   0   
      0   0   0   0   0   
      0   0   0   0   0   
      0   0   0   0   0   
      0   0   0   0   0   
      0   0   0   0   0   
      0   0   0   0   0   
      0   0   0   0   0   
      0   0   0   0   0   
      0   0   0   0   0   
      0   0   0   0   0   
      0   0   0   0   0   
      0   0   0   0   0   
      0   0   0   0   0   
      0   0   0   0   0   
      0   0   0   0   0   
      0   0   0   0   0   
      0   0   0   0   0   
      0   0   0   0   0   
      0   0   0   0   0   
      0   0   0   0   0   
      0   0   0   0   0   
      0   0   0   0   0   
      0   0   0   0   0   
      0   0   0   0   0   
      0   0   0   0   0   
      0   0   0   0   0   
      0   0   0   0   0   
      0   0   0   0   0   
      0   0   0   0   0   
      0   0   0   0   0   
      0   0   0   0   0   
      0   0   0   0   0   
      0   0   0   0   0   
      0   0   0   0   0   
      0   0   0   0   0   
      0   0   0   0   0   
      0   0   0   0   0   
      0   0   0   0   0   
      0   0   0   0   0   
      0   0   0   0   0   
      0   0   0   0   0   
      0   0   0   0   0   
      0   0   0   0   0   
      0   0   0   0   0   
      0   0   0   0   0   
      0   0   0   0   0   
      0   0   0   0   0   
      0   0   0   0   0   
      0   0   0   0   0   
      0   0   0   0   0   
      0   0   0   0   0   
      0   0   0   0   0   
      0   0   0   0   0   
      0   0   0   0   0   
      0   0   0   0   0   
      0   0   0   0   0   
      0   0   0   0   0   
      0   0   0   0   0   
      0   0   0   0   0   
      0   0   0   0   0   
      0   0   0   0   0   
      0   0   0   0   0   
      0   0   0   0   0   
      0   0   0   0   0   
      0   0   0   0   0   
      0   0   0   0   0   
      0   0   0   0   0   
      0   0   0   0   0   
      0   0   0   0   0   
      0   0   0   0   0   
      0   0   0   0   0   
      0   0   0   0   0   
      0   0   0   0   0   
      0   0   0   0   0   
      0   0   0   0   0   
      0   0   0   0   0   
      0   0   0   0   0   
      0   0   0   0   0   
      0   0   0   0   0   
      0   0   0   0   0   
      0   0   0   0   0   
      0   0   0   0   0   
      0   0   0   0   0   
      0   0   0   0   0   
      0   0   0   0   0   
      0   0   0   0   0   
      0   0   0   0   0   
      0   0   0   0   0   
      0   0   0   0   0   
      0   0   0   0   0   
      0   0   0   0   0   
      0   0   0   0   0   
      0   0   0   0   0   
      0   0   0   0   0   
      0   0   0   0   0   
      0   0   0   0   0   
      0   0   0   0   0   
      0   0   0   0   0   
      0   0   0   0   0   
      0   0   0   0   0   
      0   0   0   0   0   
      0   0   0   0   0   
      0   0   0   0   0   
      0   0   0   0   0   
      0   0   0   0   0   
      0   0   0   0   0   
      0   0   0   0   0   
      0   0   0   0   0   
      0   0   0   0   0   
      0   0   0   0   0   
      0   0   0   0   0   
      0   0   0   0   0   
      0   0   0   0   0   
      0   0   0   0   0   
      0   0   0   0   0   
      0   0   0   0   0   
      0   0   0   0   0   
      0   0   0   0   0   
      0   0   0   0   0   
      0   0   0   0   0   
      0   0   0   0   0   
      0   0   0   0   0   
      0   0   0   0   0   
      0   0   0   0   0   
      0   0   0   0   0   
      0   0   0   0   0   
      0   0   0   0   0   
      0   0   0   0   0   
      0   0   0   0   0   
      0   0   0   0   0   
      0   0   0   0   0   
      0   0   0   0   0   
      0   0   0   0   0   
      0   0   0   0   0   
      0   0   0   0   0   
      0   0   0   0   0   
      0   0   0   0   0   
      0   0   0   0   0   
      0   0   0   0   0   
      0   0   0   0   0   
      0   0   0   0   0   
      0   0   0   0   0   
      0   0   0   0   0   
      0   0   0   0   0   
      0   0   0   0   0   
      0   0   0   0   0   
      0   0   0   0   0   
      0   0   0   0   0   
      0   0   0   0   0   
      0   0   0   0   0   
      0   0   0   0   0   
      0   0   0   0   0   
      0   0   0   0   0   
      0   0   0   0   0   
      0   0   0   0   0   
      0   0   0   0   0   
      0   0   0   0   0   
      0   0   0   0   0   
      0   0   0   0   0   
      0   0   0   0   0   
      0   0   0   0   0   
      0   0   0   0   0   
      0   0   0   0   0   
      0   0   0   0   0   
      0   0   0   0   0   
      0   0   0   0   0   
      0   0   0   0   0   
      0   0   0   0   0   
      0   0   0   0   0   
      0   0   0   0   0   
      0   0   0   0   0   
      0   0   0   0   0   
      0   0   0   0   0   
      0   0   0   0   0   
      0   0   0   0   0   
      0   0   0   0   0   
      0   0   0   0   0   
      0   0   0   0   0   
      0   0   0   0   0   
      0   0   0   0   0   
      0   0   0   0   0   
      0   0   0   0   0   
      0   0   0   0   0   
      0   0   0   0   0   
      0   0   0   0   0   
      0   0   0   0   0   
      0   0   0   0   0   
      0   0   0   0   0   
      0   0   0   0   0   
      0   0   0   0   0   
      0   0   0   0   0   
      0   0   0   0   0   
      0   0   0   0   0   
      0   0   0   0   0   
      0   0   0   0   0   
      0   0   0   0   0   
      0   0   0   0   0   
      0   0   0   0   0   
      0   0   0   0   0   
      0   0   0   0   0   
      0   0   0   0   0   
      0   0   0   0   0   
      0   0   0   0   0   
      0   0   0   0   0   
      0   0   0   0   0   
      0   0   0   0   0   
      0   0   0   0   0   
      0   0   0   0   0   
      0   0   0   0   0   
      0   0   0   0   0   
      0   0   0   0   0   
      0   0   0   0   0   
      0   0   0   0   0   
      0   0   0   0   0   
      0   0   0   0   0   
      0   0   0   0   0   
      0   0   0   0   0   
      0   0   0   0   0   
      0   0   0   0   0   
      0   0   0   0   0   
      0   0   0   0   0   
      0   0   0   0   0   
      0   0   0   0   0   
      0   0   0   0   0   
      0   0   0   0   0   
      0   0   0   0   0   
      0   0   0   0   0   
      0   0   0   0   0   
      0   0   0   0   0   
      0   0   0   0   0   
      0   0   0   0   0   
      0   0   0   0   0   
      0   0   0   0   0   
      0   0   0   0   0   
      0   0   0   0   0   
      0   0   0   0   0   
      0   0   0   0   0   
      0   0   0   0   0   
      0   0   0   0   0   
      0.573373331193   0.573361341498   0.573325406791   0.573265630622   0.573182186943   
      0.573075322154   0.572945357944   0.572792694898   0.572617816831   0.572421295793   
      0.572203797681   0.571966088336   0.571709040025   0.57143363813   0.571140987851   
      0.570832320701   0.570509000497   0.570172528545   0.569824547669   0.569466844681   
      0.569101350924   0.56873014043   0.568355425335   0.567979548148   0.567604970555   
      0.56723425852   0.566870063529   0.566515099937   0.566172118548   0.565843876671   
      0.565533105093   0.56524247255   0.564974548419   0.564731764513   0.564516376935   
      0.564330429045   0.564175716588   0.564053756049   0.563965757227   0.56391260089   
      0.563894822261   0.56391260089   0.563965757227   0.564053756049   0.564175716588   
      0.564330429045   0.564516376935   0.564731764513   0.564974548419   0.56524247255   
      0.565533105093   0.565843876671   0.566172118548   0.566515099937   0.566870063529   
      0.56723425852   0.567604970555   0.567979548148   0.568355425335   0.56873014043   
      0.569101350924   0.569466844681   0.569824547669   0.570172528545   0.570509000497   
      0.570832320701   0.571140987851   0.57143363813   0.571709040025   0.571966088336   
      0.572203797681   0.572421295793   0.572617816831   0.572792694898   0.572945357944   
      0.573075322154   0.573182186943   0.573265630622   0.573325406791   0.573361341498   
      0.461567767432   0.461551138228   0.461501297813   0.461418388384   0.461302648959   
      0.461154418385   0.460974139517   0.460762364503   0.460519761136   0.460247120159   
      0.459945363413   0.459615552674   0.459258898983   0.458876772212   0.458470710593   
      0.458042429835   0.457593831445   0.457127009778   0.456644257335   0.456148067739   
      0.455641135867   0.455126354546   0.454606807301   0.454085756665   0.453566627646   
      0.453052986084   0.452548511732   0.452056966113   0.451582155369   0.451127888517   
      0.450697931768   0.450295959735   0.449925504547   0.449589904063   0.449292250465   
      0.449035340603   0.44882162946   0.448653188102   0.448531667338   0.448458268224   
      0.448433720294   0.448458268224   0.448531667338   0.448653188102   0.44882162946   
      0.449035340603   0.449292250465   0.449589904063   0.449925504547   0.450295959735   
      0.450697931768   0.451127888517   0.451582155369   0.452056966113   0.452548511732   
      0.453052986084   0.453566627646   0.454085756665   0.454606807301   0.455126354546   
      0.455641135867   0.456148067739   0.456644257335   0.457127009778   0.457593831445   
      0.458042429835   0.458470710593   0.458876772212   0.459258898983   0.459615552674   
      0.459945363413   0.460247120159   0.460519761136   0.460762364503   0.460974139517   
      0.461154418385   0.461302648959   0.461418388384   0.461501297813   0.461551138228   
      0.436694971614   0.436673458225   0.436608981803   0.436501734364   0.436352038515   
      0.436160351309   0.435927269558   0.435653536553   0.435340050076   0.434987871577   
      0.434598236327   0.434172564327   0.433712471698   0.433219782194   0.432696538451   
      0.432145012499   0.43156771499   0.430967402577   0.430347082789   0.429710015751   
      0.429059712069   0.428399926244   0.427734645004   0.427068070053   0.426404594842   
      0.425748775139   0.425105293351   0.424478916773   0.423874450157   0.423296683253   
      0.422750334162   0.422239989603   0.421770043329   0.421344634111   0.420967584763   
      0.420642343755   0.420371930931   0.420158888771   0.42000524053   0.419912456402   
      0.41988142865   0.419912456402   0.42000524053   0.420158888771   0.420371930931   
      0.420642343755   0.420967584763   0.421344634111   0.421770043329   0.422239989603   
      0.422750334162   0.423296683253   0.423874450157   0.424478916773   0.425105293351   
      0.425748775139   0.426404594842   0.427068070053   0.427734645004   0.428399926244   
      0.429059712069   0.429710015751   0.430347082789   0.430967402577   0.43156771499   
      0.432145012499   0.432696538451   0.433219782194   0.433712471698   0.434172564327   
      0.434598236327   0.434987871577   0.435340050076   0.435653536553   0.435927269558   
      0.436160351309   0.436352038515   0.436501734364   0.436608981803   0.436673458225   
      0.412065371279   0.412038999435   0.411959966943   0.411828523842   0.41164508991   
      0.411410259183   0.41112480618   0.410789693732   0.410406082257   0.409975340293   
      0.409499056039   0.408979049592   0.408417385519   0.407816385291   0.407178639096   
      0.406507016413   0.405804674713   0.405075065578   0.404321937499   0.403549334599   
      0.40276159057   0.401963317123   0.401159386386   0.400354906783   0.399555192123   
      0.398765723793   0.39799210621   0.397240015922   0.396515144969   0.395823139402   
      0.395169534033   0.394559684697   0.393998699451   0.393491370214   0.393042106412   
      0.392654872153   0.39233312843   0.392079781689   0.39189714   0.391786877858   
      0.391750010429   0.391786877858   0.39189714   0.392079781689   0.39233312843   
      0.392654872153   0.393042106412   0.393491370214   0.393998699451   0.394559684697   
      0.395169534033   0.395823139402   0.396515144969   0.397240015922   0.39799210621   
      0.398765723793   0.399555192123   0.400354906783   0.401159386386   0.401963317123   
      0.40276159057   0.403549334599   0.404321937499   0.405075065578   0.405804674713   
      0.406507016413   0.407178639096   0.407816385291   0.408417385519   0.408979049592   
      0.409499056039   0.409975340293   0.410406082257   0.410789693732   0.41112480618   
      0.411410259183   0.41164508991   0.411828523842   0.411959966943   0.412038999435   
      0.392745284693   0.392715253245   0.392625259575   0.39247560669   0.392266802895   
      0.391999566646   0.391674833233   0.391293763113   0.390857751717   0.390368440482   
      0.389827728779   0.389237786363   0.388601065877   0.387920314886   0.387198586815   
      0.38643925013   0.385645995017   0.384822836792   0.383974115252   0.383104489208   
      0.382218925478   0.381322681717   0.380421282613   0.379520489104   0.378626260539   
      0.377744709892   0.3768820524   0.376044548259   0.375238440239   0.374469887284   
      0.373744895369   0.373069246973   0.372448430641   0.371887572102   0.371391368395   
      0.370964026356   0.370609206739   0.370329975043   0.370128760023   0.370007320621   
      0.369966721933   0.370007320621   0.370128760023   0.370329975043   0.370609206739   
      0.370964026356   0.371391368395   0.371887572102   0.372448430641   0.373069246973   
      0.373744895369   0.374469887284   0.375238440239   0.376044548259   0.3768820524   
      0.377744709892   0.378626260539   0.379520489104   0.380421282613   0.381322681717   
      0.382218925478   0.383104489208   0.383974115252   0.384822836792   0.385645995017   
      0.38643925013   0.387198586815   0.387920314886   0.388601065877   0.389237786363   
      0.389827728779   0.390368440482   0.390857751717   0.391293763113   0.391674833233   
      0.391999566646   0.392266802895   0.39247560669   0.392625259575   0.392715253245   
      0.377639386881   0.377606870503   0.377509436482   0.377347431175   0.377121435221   
      0.376832268519   0.376480997033   0.376068941235   0.375597685966   0.375069091387   
      0.374485304673   0.373848771971   0.373162250115   0.372428817474   0.371651883263   
      0.370835194578   0.369982840368   0.369099251543   0.368189196435   0.367257770866   
      0.366310382177   0.365352726693   0.364390760284   0.363430661876   0.362478790024   
      0.361541632879   0.360625752168   0.359737722025   0.358884063737   0.358071177621   
      0.357305273386   0.356592300384   0.355937879146   0.355347235554   0.354825138898   
      0.354375844923   0.354003044801   0.353709820837   0.353498609484   0.353371172166   
      0.353328574216   0.353371172166   0.353498609484   0.353709820837   0.354003044801   
      0.354375844923   0.354825138898   0.355347235554   0.355937879146   0.356592300384   
      0.357305273386   0.358071177621   0.358884063737   0.359737722025   0.360625752168   
      0.361541632879   0.362478790024   0.363430661876   0.364390760284   0.365352726693   
      0.366310382177   0.367257770866   0.368189196435   0.369099251543   0.369982840368   
      0.370835194578   0.371651883263   0.372428817474   0.373162250115   0.373848771971   
      0.374485304673   0.375069091387   0.375597685966   0.376068941235   0.376480997033   
      0.376832268519   0.377121435221   0.377347431175   0.377509436482   0.377606870503   
      0.366766545789   0.366732512541   0.366630538578   0.366461002266   0.366224537595   
      0.365922039149   0.365554668865   0.365123864377   0.364631348676   0.364079140719   
      0.363469566599   0.362805270732   0.362089226514   0.361324745757   0.360515486204   
      0.359665456322   0.358779016595   0.357860876483   0.356916086305   0.355950023344   
      0.354968371605   0.353977094832   0.352982402568   0.351990709313   0.35100858704   
      0.350042711647   0.349099804127   0.34818656747   0.347309620512   0.346475430034   
      0.345690242505   0.344960016838   0.344290359457   0.343686462891   0.343153048889   
      0.342694316927   0.342313898753   0.342014819448   0.34179946532   0.34166955883   
      0.341626140638   0.34166955883   0.34179946532   0.342014819448   0.342313898753   
      0.342694316927   0.343153048889   0.343686462891   0.344290359457   0.344960016838   
      0.345690242505   0.346475430034   0.347309620512   0.34818656747   0.349099804127   
      0.350042711647   0.35100858704   0.351990709313   0.352982402568   0.353977094832   
      0.354968371605   0.355950023344   0.356916086305   0.357860876483   0.358779016595   
      0.359665456322   0.360515486204   0.361324745757   0.362089226514   0.362805270732   
      0.363469566599   0.364079140719   0.364631348676   0.365123864377   0.365554668865   
      0.365922039149   0.366224537595   0.366461002266   0.366630538578   0.366732512541   
      0.359805275275   0.359770406046   0.359665931124   0.35949224982   0.359250031003   
      0.358940218018   0.358564035352   0.35812299682   0.357618914973   0.357053911352   
      0.356430427127   0.355751233583   0.355019441835   0.354238511078   0.353412254609   
      0.352544842838   0.351640802464   0.350705011029   0.349742686103   0.348759368465   
      0.347760898785   0.346753387496   0.345743177775   0.344736801797   0.343740930693   
      0.342762318903   0.341807743866   0.340883942157   0.339997543391   0.339155003226   
      0.338362536876   0.337626054453   0.336951099352   0.336342790747   0.335805771026   
      0.335344158836   0.334961508155   0.334660773659   0.334444282481   0.334313712355   
      0.334270076101   0.334313712355   0.334444282481   0.334660773659   0.334961508155   
      0.335344158836   0.335805771026   0.336342790747   0.336951099352   0.337626054453   
      0.338362536876   0.339155003226   0.339997543391   0.340883942157   0.341807743866   
      0.342762318903   0.343740930693   0.344736801797   0.345743177775   0.346753387496   
      0.347760898785   0.348759368465   0.349742686103   0.350705011029   0.351640802464   
      0.352544842838   0.353412254609   0.354238511078   0.355019441835   0.355751233583   
      0.356430427127   0.357053911352   0.357618914973   0.35812299682   0.358564035352   
      0.358940218018   0.359250031003   0.35949224982   0.359665931124   0.359770406046   
      0.35642708083   0.356391846975   0.356286281626   0.356110794442   0.355866071514   
      0.355553080243   0.355173075938   0.354727609897   0.354218538654   0.353648034005   
      0.353018593338   0.352333049701   0.35159458098   0.350806717466   0.349973347057   
      0.349098717271   0.348187433281   0.347244451161   0.346275065632   0.345284891708   
      0.344279839763   0.3432660838   0.342250022865   0.341238235871   0.340237430325   
      0.339254385731   0.338295892657   0.337368688673   0.336479392474   0.335634437579   
      0.334840006979   0.334101970045   0.333425822856   0.332816632909   0.332278988991   
      0.331816956733   0.33143404017   0.331133149458   0.330916574721   0.330785965939   
      0.330742318741   0.330785965939   0.330916574721   0.331133149458   0.33143404017   
      0.331816956733   0.332278988991   0.332816632909   0.333425822856   0.334101970045   
      0.334840006979   0.335634437579   0.336479392474   0.337368688673   0.338295892657   
      0.339254385731   0.340237430325   0.341238235871   0.342250022865   0.3432660838   
      0.344279839763   0.345284891708   0.346275065632   0.347244451161   0.348187433281   
      0.349098717271   0.349973347057   0.350806717466   0.35159458098   0.352333049701   
      0.353018593338   0.353648034005   0.354218538654   0.354727609897   0.355173075938   
      0.355553080243   0.355866071514   0.356110794442   0.356286281626   0.356391846975   
      0.35642708083   0.356391846975   0.356286281626   0.356110794442   0.355866071514   
      0.355553080243   0.355173075938   0.354727609897   0.354218538654   0.353648034005   
      0.353018593338   0.352333049701   0.35159458098   0.350806717466   0.349973347057   
      0.349098717271   0.348187433281   0.347244451161   0.346275065632   0.345284891708   
      0.344279839763   0.3432660838   0.342250022865   0.341238235871   0.340237430325   
      0.339254385731   0.338295892657   0.337368688673   0.336479392474   0.335634437579   
      0.334840006979   0.334101970045   0.333425822856   0.332816632909   0.332278988991   
      0.331816956733   0.33143404017   0.331133149458   0.330916574721   0.330785965939   
      0.330742318741   0.330785965939   0.330916574721   0.331133149458   0.33143404017   
      0.331816956733   0.332278988991   0.332816632909   0.333425822856   0.334101970045   
      0.334840006979   0.335634437579   0.336479392474   0.337368688673   0.338295892657   
      0.339254385731   0.340237430325   0.341238235871   0.342250022865   0.3432660838   
      0.344279839763   0.345284891708   0.346275065632   0.347244451161   0.348187433281   
      0.349098717271   0.349973347057   0.350806717466   0.35159458098   0.352333049701   
      0.353018593338   0.353648034005   0.354218538654   0.354727609897   0.355173075938   
      0.355553080243   0.355866071514   0.356110794442   0.356286281626   0.356391846975   
      0.359805275275   0.359770406046   0.359665931124   0.35949224982   0.359250031003   
      0.358940218018   0.358564035352   0.35812299682   0.357618914973   0.357053911352   
      0.356430427127   0.355751233583   0.355019441835   0.354238511078   0.353412254609   
      0.352544842838   0.351640802464   0.350705011029   0.349742686103   0.348759368465   
      0.347760898785   0.346753387496   0.345743177775   0.344736801797   0.343740930693   
      0.342762318903   0.341807743866   0.340883942157   0.339997543391   0.339155003226   
      0.338362536876   0.337626054453   0.336951099352   0.336342790747   0.335805771026   
      0.335344158836   0.334961508155   0.334660773659   0.334444282481   0.334313712355   
      0.334270076101   0.334313712355   0.334444282481   0.334660773659   0.334961508155   
      0.335344158836   0.335805771026   0.336342790747   0.336951099352   0.337626054453   
      0.338362536876   0.339155003226   0.339997543391   0.340883942157   0.341807743866   
      0.342762318903   0.343740930693   0.344736801797   0.345743177775   0.346753387496   
      0.347760898785   0.348759368465   0.349742686103   0.350705011029   0.351640802464   
      0.352544842838   0.353412254609   0.354238511078   0.355019441835   0.355751233583   
      0.356430427127   0.357053911352   0.357618914973   0.35812299682   0.358564035352   
      0.358940218018   0.359250031003   0.35949224982   0.359665931124   0.359770406046   
      0.366766545789   0.366732512541   0.366630538578   0.366461002266   0.366224537595   
      0.365922039149   0.365554668865   0.365123864377   0.364631348676   0.364079140719   
      0.363469566599   0.362805270732   0.362089226514   0.361324745757   0.360515486204   
      0.359665456322   0.358779016595   0.357860876483   0.356916086305   0.355950023344   
      0.354968371605   0.353977094832   0.352982402568   0.351990709313   0.35100858704   
      0.350042711647   0.349099804127   0.34818656747   0.347309620512   0.346475430034   
      0.345690242505   0.344960016838   0.344290359457   0.343686462891   0.343153048889   
      0.342694316927   0.342313898753   0.342014819448   0.34179946532   0.34166955883   
      0.341626140638   0.34166955883   0.34179946532   0.342014819448   0.342313898753   
      0.342694316927   0.343153048889   0.343686462891   0.344290359457   0.344960016838   
      0.345690242505   0.346475430034   0.347309620512   0.34818656747   0.349099804127   
      0.350042711647   0.35100858704   0.351990709313   0.352982402568   0.353977094832   
      0.354968371605   0.355950023344   0.356916086305   0.357860876483   0.358779016595   
      0.359665456322   0.360515486204   0.361324745757   0.362089226514   0.362805270732   
      0.363469566599   0.364079140719   0.364631348676   0.365123864377   0.365554668865   
      0.365922039149   0.366224537595   0.366461002266   0.366630538578   0.366732512541   
      0.377639386881   0.377606870503   0.377509436482   0.377347431175   0.377121435221   
      0.376832268519   0.376480997033   0.376068941235   0.375597685966   0.375069091387   
      0.374485304673   0.373848771971   0.373162250115   0.372428817474   0.371651883263   
      0.370835194578   0.369982840368   0.369099251543   0.368189196435   0.367257770866   
      0.366310382177   0.365352726693   0.364390760284   0.363430661876   0.362478790024   
      0.361541632879   0.360625752168   0.359737722025   0.358884063737   0.358071177621   
      0.357305273386   0.356592300384   0.355937879146   0.355347235554   0.354825138898   
      0.354375844923   0.354003044801   0.353709820837   0.353498609484   0.353371172166   
      0.353328574216   0.353371172166   0.353498609484   0.353709820837   0.354003044801   
      0.354375844923   0.354825138898   0.355347235554   0.355937879146   0.356592300384   
      0.357305273386   0.358071177621   0.358884063737   0.359737722025   0.360625752168   
      0.361541632879   0.362478790024   0.363430661876   0.364390760284   0.365352726693   
      0.366310382177   0.367257770866   0.368189196435   0.369099251543   0.369982840368   
      0.370835194578   0.371651883263   0.372428817474   0.373162250115   0.373848771971   
      0.374485304673   0.375069091387   0.375597685966   0.376068941235   0.376480997033   
      0.376832268519   0.377121435221   0.377347431175   0.377509436482   0.377606870503   
      0.392745284693   0.392715253245   0.392625259575   0.39247560669   0.392266802895   
      0.391999566646   0.391674833233   0.391293763113   0.390857751717   0.390368440482   
      0.389827728779   0.389237786363   0.388601065877   0.387920314886   0.387198586815   
      0.38643925013   0.385645995017   0.384822836792   0.383974115252   0.383104489208   
      0.382218925478   0.381322681717   0.380421282613   0.379520489104   0.378626260539   
      0.377744709892   0.3768820524   0.376044548259   0.375238440239   0.374469887284   
      0.373744895369   0.373069246973   0.372448430641   0.371887572102   0.371391368395   
      0.370964026356   0.370609206739   0.370329975043   0.370128760023   0.370007320621   
      0.369966721933   0.370007320621   0.370128760023   0.370329975043   0.370609206739   
      0.370964026356   0.371391368395   0.371887572102   0.372448430641   0.373069246973   
      0.373744895369   0.374469887284   0.375238440239   0.376044548259   0.3768820524   
      0.377744709892   0.378626260539   0.379520489104   0.380421282613   0.381322681717   
      0.382218925478   0.383104489208   0.383974115252   0.384822836792   0.385645995017   
      0.38643925013   0.387198586815   0.387920314886   0.388601065877   0.389237786363   
      0.389827728779   0.390368440482   0.390857751717   0.391293763113   0.391674833233   
      0.391999566646   0.392266802895   0.39247560669   0.392625259575   0.392715253245   
      0.412065371279   0.412038999435   0.411959966943   0.411828523842   0.41164508991   