<?xml version="1.0"?>
<VTKFile type="ImageData" version="0.1" byte_order="LittleEndian">
  <ImageData WholeExtent="0 79 0 19 0 19" Origin="0 0 0" Spacing="1 1 1">
  <Piece Extent="0 79 0 19 0 19">
    <PointData Scalars="density">
       <DataArray type="Float32" Name="reddensity" NumberOfComponents="1" format="ascii">
      0   0   0   0   0   
      0   0   0   0   0   
      0   0   0   0   0   
      0   0   0   0   0   
      0   0   0   0   0   
      0   0   0   0   0   
      0   0   0   0   0   
      0   0   0   0   0   
      0   0   0   0   0   
      0   0   0   0   0   
      0   0   0   0   0   
      0   0   0   0   0   
      0   0   0   0   0   
      0   0   0   0   0   
      0   0   0   0   0   
      0   0   0   0   0   
      0   0   0   0   0   
      0   0   0   0   0   
      0   0   0   0   0   
      0   0   0   0   0   
      0   0   0   0   0   
      0   0   0   0   0   
      0   0   0   0   0   
      0   0   0   0   0   
      0   0   0   0   0   
      0   0   0   0   0   
      0   0   0   0   0   
      0   0   0   0   0   
      0   0   0   0   0   
      0   0   0   0   0   
      0   0   0   0   0   
      0   0   0   0   0   
      0   0   0   0   0   
      0   0   0   0   0   
      0   0   0   0   0   
      0   0   0   0   0   
      0   0   0   0   0   
      0   0   0   0   0   
      0   0   0   0   0   
      0   0   0   0   0   
      0   0   0   0   0   
      0   0   0   0   0   
      0   0   0   0   0   
      0   0   0   0   0   
      0   0   0   0   0   
      0   0   0   0   0   
      0   0   0   0   0   
      0   0   0   0   0   
      0   0   0   0   0   
      0   0   0   0   0   
      0   0   0   0   0   
      0   0   0   0   0   
      0   0   0   0   0   
      0   0   0   0   0   
      0   0   0   0   0   
      0   0   0   0   0   
      0   0   0   0   0   
      0   0   0   0   0   
      0   0   0   0   0   
      0   0   0   0   0   
      0   0   0   0   0   
      0   0   0   0   0   
      0   0   0   0   0   
      0   0   0   0   0   
      0   0   0   0   0   
      0   0   0   0   0   
      0   0   0   0   0   
      0   0   0   0   0   
      0   0   0   0   0   
      0   0   0   0   0   
      0   0   0   0   0   
      0   0   0   0   0   
      0   0   0   0   0   
      0   0   0   0   0   
      0   0   0   0   0   
      0   0   0   0   0   
      0   0   0   0   0   
      0   0   0   0   0   
      0   0   0   0   0   
      0   0   0   0   0   
      0   0   0   0   0   
      0   0   0   0   0   
      0   0   0   0   0   
      0   0   0   0   0   
      0   0   0   0   0   
      0   0   0   0   0   
      0   0   0   0   0   
      0   0   0   0   0   
      0   0   0   0   0   
      0   0   0   0   0   
      0   0   0   0   0   
      0   0   0   0   0   
      0   0   0   0   0   
      0   0   0   0   0   
      0   0   0   0   0   
      0   0   0   0   0   
      0   0   0   0   0   
      0   0   0   0   0   
      0   0   0   0   0   
      0   0   0   0   0   
      0   0   0   0   0   
      0   0   0   0   0   
      0   0   0   0   0   
      0   0   0   0   0   
      0   0   0   0   0   
      0   0   0   0   0   
      0   0   0   0   0   
      0   0   0   0   0   
      0   0   0   0   0   
      0   0   0   0   0   
      0   0   0   0   0   
      0   0   0   0   0   
      0   0   0   0   0   
      0   0   0   0   0   
      0   0   0   0   0   
      0   0   0   0   0   
      0   0   0   0   0   
      0   0   0   0   0   
      0   0   0   0   0   
      0   0   0   0   0   
      0   0   0   0   0   
      0   0   0   0   0   
      0   0   0   0   0   
      0   0   0   0   0   
      0   0   0   0   0   
      0   0   0   0   0   
      0   0   0   0   0   
      0   0   0   0   0   
      0   0   0   0   0   
      0   0   0   0   0   
      0   0   0   0   0   
      0   0   0   0   0   
      0   0   0   0   0   
      0   0   0   0   0   
      0   0   0   0   0   
      0   0   0   0   0   
      0   0   0   0   0   
      0   0   0   0   0   
      0   0   0   0   0   
      0   0   0   0   0   
      0   0   0   0   0   
      0   0   0   0   0   
      0   0   0   0   0   
      0   0   0   0   0   
      0   0   0   0   0   
      0   0   0   0   0   
      0   0   0   0   0   
      0   0   0   0   0   
      0   0   0   0   0   
      0   0   0   0   0   
      0   0   0   0   0   
      0   0   0   0   0   
      0   0   0   0   0   
      0   0   0   0   0   
      0   0   0   0   0   
      0   0   0   0   0   
      0   0   0   0   0   
      0   0   0   0   0   
      0   0   0   0   0   
      0   0   0   0   0   
      0   0   0   0   0   
      0   0   0   0   0   
      0   0   0   0   0   
      0   0   0   0   0   
      0   0   0   0   0   
      0   0   0   0   0   
      0   0   0   0   0   
      0   0   0   0   0   
      0   0   0   0   0   
      0   0   0   0   0   
      0   0   0   0   0   
      0   0   0   0   0   
      0   0   0   0   0   
      0   0   0   0   0   
      0   0   0   0   0   
      0   0   0   0   0   
      0   0   0   0   0   
      0   0   0   0   0   
      0   0   0   0   0   
      0   0   0   0   0   
      0   0   0   0   0   
      0   0   0   0   0   
      0   0   0   0   0   
      0   0   0   0   0   
      0   0   0   0   0   
      0   0   0   0   0   
      0   0   0   0   0   
      0   0   0   0   0   
      0   0   0   0   0   
      0   0   0   0   0   
      0   0   0   0   0   
      0   0   0   0   0   
      0   0   0   0   0   
      0   0   0   0   0   
      0   0   0   0   0   
      0   0   0   0   0   
      0   0   0   0   0   
      0   0   0   0   0   
      0   0   0   0   0   
      0   0   0   0   0   
      0   0   0   0   0   
      0   0   0   0   0   
      0   0   0   0   0   
      0   0   0   0   0   
      0   0   0   0   0   
      0   0   0   0   0   
      0   0   0   0   0   
      0   0   0   0   0   
      0   0   0   0   0   
      0   0   0   0   0   
      0   0   0   0   0   
      0   0   0   0   0   
      0   0   0   0   0   
      0   0   0   0   0   
      0   0   0   0   0   
      0   0   0   0   0   
      0   0   0   0   0   
      0   0   0   0   0   
      0   0   0   0   0   
      0   0   0   0   0   
      0   0   0   0   0   
      0   0   0   0   0   
      0   0   0   0   0   
      0   0   0   0   0   
      0   0   0   0   0   
      0   0   0   0   0   
      0   0   0   0   0   
      0   0   0   0   0   
      0   0   0   0   0   
      0   0   0   0   0   
      0   0   0   0   0   
      0   0   0   0   0   
      0   0   0   0   0   
      0   0   0   0   0   
      0   0   0   0   0   
      0   0   0   0   0   
      0   0   0   0   0   
      0   0   0   0   0   
      0   0   0   0   0   
      0   0   0   0   0   
      0   0   0   0   0   
      0   0   0   0   0   
      0   0   0   0   0   
      0   0   0   0   0   
      0   0   0   0   0   
      0   0   0   0   0   
      0   0   0   0   0   
      0   0   0   0   0   
      0   0   0   0   0   
      0   0   0   0   0   
      0   0   0   0   0   
      0   0   0   0   0   
      0   0   0   0   0   
      0   0   0   0   0   
      0   0   0   0   0   
      0   0   0   0   0   
      0   0   0   0   0   
      0   0   0   0   0   
      0   0   0   0   0   
      0   0   0   0   0   
      0   0   0   0   0   
      0   0   0   0   0   
      0   0   0   0   0   
      0   0   0   0   0   
      0   0   0   0   0   
      0   0   0   0   0   
      0   0   0   0   0   
      0   0   0   0   0   
      0   0   0   0   0   
      0   0   0   0   0   
      0   0   0   0   0   
      0   0   0   0   0   
      0   0   0   0   0   
      0   0   0   0   0   
      0   0   0   0   0   
      0   0   0   0   0   
      0   0   0   0   0   
      0   0   0   0   0   
      0   0   0   0   0   
      0   0   0   0   0   
      0   0   0   0   0   
      0   0   0   0   0   
      0   0   0   0   0   
      0   0   0   0   0   
      0   0   0   0   0   
      0   0   0   0   0   
      0   0   0   0   0   
      0   0   0   0   0   
      0   0   0   0   0   
      0   0   0   0   0   
      0   0   0   0   0   
      0   0   0   0   0   
      0   0   0   0   0   
      0   0   0   0   0   
      0   0   0   0   0   
      0   0   0   0   0   
      0   0   0   0   0   
      0   0   0   0   0   
      0   0   0   0   0   
      0   0   0   0   0   
      0   0   0   0   0   
      0   0   0   0   0   
      0   0   0   0   0   
      0   0   0   0   0   
      0   0   0   0   0   
      0   0   0   0   0   
      0   0   0   0   0   
      0   0   0   0   0   
      0   0   0   0   0   
      0   0   0   0   0   
      0   0   0   0   0   
      0   0   0   0   0   
      0   0   0   0   0   
      0   0   0   0   0   
      0   0   0   0   0   
      0   0   0   0   0   
      0   0   0   0   0   
      0   0   0   0   0   
      0   0   0   0   0   
      0   0   0   0   0   
      0   0   0   0   0   
      0   0   0   0   0   
      0   0   0   0   0   
      0   0   0   0   0   
      0   0   0   0   0   
      0   0   0   0   0   
      0   0   0   0   0   
      0   0   0   0   0   
      0   0   0   0   0   
      0   0   0   0   0   
      0   0   0   0   0   
      0   0   0   0   0   
      0   0   0   0   0   
      0   0   0   0   0   
      0   0   0   0   0   
      0   0   0   0   0   
      0.083267806696   0.0832735134854   0.0832906277478   0.0833191308771   0.0833589908982   
      0.0834101610075   0.0834725775045   0.0835461570943   0.0836307935361   0.0837263536158   
      0.0838326724239   0.0839495479319   0.0840767348754   0.0842139379746   0.0843608045549   
      0.0845169166688   0.0846817828646   0.0848548298043   0.0850353939893   0.085222713915   
      0.0854159230375   0.0856140439867   0.0858159845101   0.086020535651   0.0862263726727   
      0.0864320592133   0.0866360550913   0.0868367280926   0.0870323699292   0.0872212163987   
      0.0874014715764   0.0875713356607   0.0877290358747   0.0878728596172   0.0880011888694   
      0.0881125347176   0.0882055707543   0.0882791640874   0.0883324027215   0.0883646181784   
      0.0883754023969   0.0883646181784   0.0883324027215   0.0882791640874   0.0882055707543   
      0.0881125347176   0.0880011888694   0.0878728596172   0.0877290358747   0.0875713356607   
      0.0874014715764   0.0872212163987   0.0870323699292   0.0868367280926   0.0866360550913   
      0.0864320592133   0.0862263726727   0.086020535651   0.0858159845101   0.0856140439867   
      0.0854159230375   0.085222713915   0.0850353939893   0.0848548298043   0.0846817828646   
      0.0845169166688   0.0843608045549   0.0842139379746   0.0840767348754   0.0839495479319   
      0.0838326724239   0.0837263536158   0.0836307935361   0.0835461570943   0.0834725775045   
      0.0834101610075   0.0833589908982   0.0833191308771   0.0832906277478   0.0832735134854   
      0.091656504416   0.0916646602605   0.0916891201592   0.0917298607736   0.0917868417537   
      0.0918600035413   0.0919492642585   0.0920545156514   0.0921756180537   0.0923123943388   
      0.0924646228349   0.0926320291946   0.0928142772344   0.0930109587941   0.0932215827123   
      0.0934455630713   0.0936822069342   0.0939307018759   0.094190103697   0.0944593247975   
      0.0947371237781   0.0950220969142   0.0953126722075   0.0956071067585   0.0959034881994   
      0.0961997408849   0.0964936374452   0.0967828161554   0.0970648043839   0.0973370481281   
      0.097596947369   0.0978418966659   0.0980693301026   0.0982767693972   0.0984618737317   
      0.0986224896499   0.0987566992494   0.0988628648505   0.0989396683839   0.0989861438948   
      0.0990017018037   0.0989861438948   0.0989396683839   0.0988628648505   0.0987566992494   
      0.0986224896499   0.0984618737317   0.0982767693972   0.0980693301026   0.0978418966659   
      0.097596947369   0.0973370481281   0.0970648043839   0.0967828161554   0.0964936374452   
      0.0961997408849   0.0959034881994   0.0956071067585   0.0953126722075   0.0950220969142   
      0.0947371237781   0.0944593247975   0.094190103697   0.0939307018759   0.0936822069342   
      0.0934455630713   0.0932215827123   0.0930109587941   0.0928142772344   0.0926320291946   
      0.0924646228349   0.0923123943388   0.0921756180537   0.0920545156514   0.0919492642585   
      0.0918600035413   0.0917868417537   0.0917298607736   0.0916891201592   0.0916646602605   
      0.105973236815   0.105986516511   0.106026344836   0.106092688753   0.106185490688   
      0.106304664725   0.106450091227   0.106621609829   0.106819010744   0.107042024339   
      0.107290308943   0.107563436882   0.107860878782   0.108181986237   0.108525973018   
      0.108891895119   0.109278630016   0.109684855696   0.110109030111   0.110549371897   
      0.111003843325   0.111470136554   0.111945664391   0.112427556749   0.112912664018   
      0.11339756843   0.113878604364   0.114351888219   0.114813358195   0.115258823863   
      0.115684024974   0.116084698445   0.116456651986   0.116795842394   0.117098456143   
      0.117360989636   0.117580326324   0.117753807862   0.117879296623   0.117955227118   
      0.117980644288   0.117955227118   0.117879296623   0.117753807862   0.117580326324   
      0.117360989636   0.117098456143   0.116795842394   0.116456651986   0.116084698445   
      0.115684024974   0.115258823863   0.114813358195   0.114351888219   0.113878604364   
      0.11339756843   0.112912664018   0.112427556749   0.111945664391   0.111470136554   
      0.111003843325   0.110549371897   0.110109030111   0.109684855696   0.109278630016   
      0.108891895119   0.108525973018   0.108181986237   0.107860878782   0.107563436882   
      0.107290308943   0.107042024339   0.106819010744   0.106621609829   0.106450091227   
      0.106304664725   0.106185490688   0.106092688753   0.106026344836   0.105986516511   
      0.117772655954   0.117791477369   0.117847927013   0.117941959953   0.118073497542   
      0.118242421747   0.118448567117   0.118691710348   0.118971557363   0.11928772785   
      0.119639737238   0.120026976123   0.12044868723   0.120903940113   0.121391603882   
      0.121910318437   0.122458464835   0.123034135627   0.123635106197   0.12425880834   
      0.124902307513   0.125562285304   0.126235028799   0.126916428497   0.127601986368   
      0.128286835438   0.128965771975   0.129633300958   0.130283694956   0.130911065994   
      0.131509449314   0.132072897354   0.132595581616   0.133071899638   0.133496583837   
      0.133864808769   0.134172293215   0.134415393615   0.134591185544   0.134697530361   
      0.134733124601   0.134697530361   0.134591185544   0.134415393615   0.134172293215   
      0.133864808769   0.133496583837   0.133071899638   0.132595581616   0.132072897354   
      0.131509449314   0.130911065994   0.130283694956   0.129633300958   0.128965771975   
      0.128286835438   0.127601986368   0.126916428497   0.126235028799   0.125562285304   
      0.124902307513   0.12425880834   0.123635106197   0.123034135627   0.122458464835   
      0.121910318437   0.121391603882   0.120903940113   0.12044868723   0.120026976123   
      0.119639737238   0.11928772785   0.118971557363   0.118691710348   0.118448567117   
      0.118242421747   0.118073497542   0.117941959953   0.117847927013   0.117791477369   
      0.128815634174   0.128840024706   0.128913176695   0.129035029798   0.129205478328   
      0.129424363555   0.12969146281   0.130006475368   0.130369004995   0.130778539152   
      0.131234424825   0.131735841079   0.132281768497   0.132870955827   0.133501884335   
      0.13417273056   0.13488132841   0.135625131779   0.136401179146   0.137206061832   
      0.138035897808   0.138886313087   0.139752432763   0.140628883716   0.141509810793   
      0.142388907928   0.143259465192   0.144114432182   0.144946497427   0.145748182796   
      0.146511951096   0.147230324399   0.147896009999   0.148502030452   0.149041853855   
      0.14950952039   0.149899761212   0.150208106004   0.150430975835   0.150565758495   
      0.150610863987   0.150565758495   0.150430975835   0.150208106004   0.149899761212   
      0.14950952039   0.149041853855   0.148502030452   0.147896009999   0.147230324399   
      0.146511951096   0.145748182796   0.144946497427   0.144114432182   0.143259465192   
      0.142388907928   0.141509810793   0.140628883716   0.139752432763   0.138886313087   
      0.138035897808   0.137206061832   0.136401179146   0.135625131779   0.13488132841   
      0.13417273056   0.133501884335   0.132870955827   0.132281768497   0.131735841079   
      0.131234424825   0.130778539152   0.130369004995   0.130006475368   0.12969146281   
      0.129424363555   0.129205478328   0.129035029798   0.128913176695   0.128840024706   
      0.138362966115   0.138392220416   0.13847995772   0.138626099319   0.138830507639   
      0.139092976605   0.139413218065   0.139790844196   0.140225345864   0.140716066895   
      0.141262174338   0.141862624856   0.142516127564   0.143221103785   0.143975644453   
      0.14477746611   0.145623866789   0.146511683307   0.147437251849   0.148396373921   
      0.149384289972   0.150395663063   0.151424574923   0.152464536557   0.153508515194   
      0.154548978889   0.155577959398   0.156587133192   0.157567919656   0.158511594656   
      0.159409416906   0.160252763889   0.161033273611   0.161742988141   0.162374494818   
      0.162921061098   0.163376759274   0.163736577714   0.163996515744   0.164153659816   
      0.164206239188   0.164153659816   0.163996515744   0.163736577714   0.163376759274   
      0.162921061098   0.162374494818   0.161742988141   0.161033273611   0.160252763889   
      0.159409416906   0.158511594656   0.157567919656   0.156587133192   0.155577959398   
      0.154548978889   0.153508515194   0.152464536557   0.151424574923   0.150395663063   
      0.149384289972   0.148396373921   0.147437251849   0.146511683307   0.145623866789   
      0.14477746611   0.143975644453   0.143221103785   0.142516127564   0.141862624856   
      0.141262174338   0.140716066895   0.140225345864   0.139790844196   0.139413218065   
      0.139092976605   0.138830507639   0.138626099319   0.13847995772   0.138392220416   
      0.145874019751   0.145907043694   0.1460060838   0.146171042663   0.146401750471   
      0.146697953755   0.147059299564   0.147485315014   0.147975382189   0.148528708428   
      0.149144292118   0.149820884253   0.1505569462   0.151350604323   0.152199602404   
      0.153101253091   0.154052389935   0.155049321899   0.156087792521   0.157162946175   
      0.158269303981   0.159400751977   0.160550543989   0.161711321342   0.162875151022   
      0.164033583249   0.165177728581   0.166298353802   0.167385994895   0.168431084566   
      0.16942409104   0.170355664289   0.171216785552   0.171998915884   0.172694139653   
      0.173295299191   0.17379611733   0.174191305049   0.174476652085   0.174649098864   
      0.174706788605   0.174649098864   0.174476652085   0.174191305049   0.17379611733   
      0.173295299191   0.172694139653   0.171998915884   0.171216785552   0.170355664289   
      0.16942409104   0.168431084566   0.167385994895   0.166298353802   0.165177728581   
      0.164033583249   0.162875151022   0.161711321342   0.160550543989   0.159400751977   
      0.158269303981   0.157162946175   0.156087792521   0.155049321899   0.154052389935   
      0.153101253091   0.152199602404   0.151350604323   0.1505569462   0.149820884253   
      0.149144292118   0.148528708428   0.147975382189   0.147485315014   0.147059299564   
      0.146697953755   0.146401750471   0.146171042663   0.1460060838   0.145907043694   
      0.150991021649   0.151026561044   0.151133142454   0.151310653088   0.15155889672   
      0.151877581292   0.152266301498   0.15272451632   0.153251521516   0.153846417151   
      0.15450807035   0.155235073623   0.156025699311   0.156877850964   0.157789012753   
      0.158756198358   0.159775901115   0.160844047545   0.161955956697   0.163106307929   
      0.164289119881   0.165497743327   0.166724870346   0.167962561857   0.169202294878   
      0.170435030127   0.171651299615   0.17284131294   0.173995080018   0.175102547138   
      0.176153742575   0.177138927548   0.178048748163   0.178874384055   0.179607689807   
      0.180241325719   0.180768875118   0.181184946075   0.181485255993   0.181666698077   
      0.181727389087   0.181666698077   0.181485255993   0.181184946075   0.180768875118   
      0.180241325719   0.179607689807   0.178874384055   0.178048748163   0.177138927548   
      0.176153742575   0.175102547138   0.173995080018   0.17284131294   0.171651299615   
      0.170435030127   0.169202294878   0.167962561857   0.166724870346   0.165497743327   
      0.164289119881   0.163106307929   0.161955956697   0.160844047545   0.159775901115   
      0.158756198358   0.157789012753   0.156877850964   0.156025699311   0.155235073623   
      0.15450807035   0.153846417151   0.153251521516   0.15272451632   0.152266301498   
      0.151877581292   0.15155889672   0.151310653088   0.151133142454   0.151026561044   
      0.153568582118   0.153605368547   0.153715688203   0.153899419602   0.154156351635   
      0.154486170574   0.154888441837   0.15536258649   0.155907852508   0.156523280911   
      0.157207666993   0.15795951705   0.158777001213   0.159657903296   0.160599568835   
      0.161598852895   0.162652069535   0.163754945181   0.164902578456   0.166089409202   
      0.167309199509   0.168555029468   0.16981931008   0.171093815241   0.172369734058   
      0.173637743837   0.174888103179   0.17611076354   0.177295496692   0.178432034688   
      0.179510218293   0.180520149513   0.181452343775   0.1822978775   0.183048527293   
      0.183696897532   0.184236533876   0.184662020896   0.18496906267   0.185154545715   
      0.185216583958   0.185154545715   0.18496906267   0.184662020896   0.184236533876   
      0.183696897532   0.183048527293   0.1822978775   0.181452343775   0.180520149513   
      0.179510218293   0.178432034688   0.177295496692   0.17611076354   0.174888103179   
      0.173637743837   0.172369734058   0.171093815241   0.16981931008   0.168555029468   
      0.167309199509   0.166089409202   0.164902578456   0.163754945181   0.162652069535   
      0.161598852895   0.160599568835   0.159657903296   0.158777001213   0.15795951705   
      0.157207666993   0.156523280911   0.155907852508   0.15536258649   0.154888441837   
      0.154486170574   0.154156351635   0.153899419602   0.153715688203   0.153605368547   
      0.153568582118   0.153605368547   0.153715688203   0.153899419602   0.154156351635   
      0.154486170574   0.154888441837   0.15536258649   0.155907852508   0.156523280911   
      0.157207666993   0.15795951705   0.158777001213   0.159657903296   0.160599568835   
      0.161598852895   0.162652069535   0.163754945181   0.164902578456   0.166089409202   
      0.167309199509   0.168555029468   0.16981931008   0.171093815241   0.172369734058   
      0.173637743837   0.174888103179   0.17611076354   0.177295496692   0.178432034688   
      0.179510218293   0.180520149513   0.181452343775   0.1822978775   0.183048527293   
      0.183696897532   0.184236533876   0.184662020896   0.18496906267   0.185154545715   
      0.185216583958   0.185154545715   0.18496906267   0.184662020896   0.184236533876   
      0.183696897532   0.183048527293   0.1822978775   0.181452343775   0.180520149513   
      0.179510218293   0.178432034688   0.177295496692   0.17611076354   0.174888103179   
      0.173637743837   0.172369734058   0.171093815241   0.16981931008   0.168555029468   
      0.167309199509   0.166089409202   0.164902578456   0.163754945181   0.162652069535   
      0.161598852895   0.160599568835   0.159657903296   0.158777001213   0.15795951705   
      0.157207666993   0.156523280911   0.155907852508   0.15536258649   0.154888441837   
      0.154486170574   0.154156351635   0.153899419602   0.153715688203   0.153605368547   
      0.150991021649   0.151026561044   0.151133142454   0.151310653088   0.15155889672   
      0.151877581292   0.152266301498   0.15272451632   0.153251521516   0.153846417151   
      0.15450807035   0.155235073623   0.156025699311   0.156877850964   0.157789012753   
      0.158756198358   0.159775901115   0.160844047545   0.161955956697   0.163106307929   
      0.164289119881   0.165497743327   0.166724870346   0.167962561857   0.169202294878   
      0.170435030127   0.171651299615   0.17284131294   0.173995080018   0.175102547138   
      0.176153742575   0.177138927548   0.178048748163   0.178874384055   0.179607689807   
      0.180241325719   0.180768875118   0.181184946075   0.181485255993   0.181666698077   
      0.181727389087   0.181666698077   0.181485255993   0.181184946075   0.180768875118   
      0.180241325719   0.179607689807   0.178874384055   0.178048748163   0.177138927548   
      0.176153742575   0.175102547138   0.173995080018   0.17284131294   0.171651299615   
      0.170435030127   0.169202294878   0.167962561857   0.166724870346   0.165497743327   
      0.164289119881   0.163106307929   0.161955956697   0.160844047545   0.159775901115   
      0.158756198358   0.157789012753   0.156877850964   0.156025699311   0.155235073623   
      0.15450807035   0.153846417151   0.153251521516   0.15272451632   0.152266301498   
      0.151877581292   0.15155889672   0.151310653088   0.151133142454   0.151026561044   
      0.145874019751   0.145907043694   0.1460060838   0.146171042663   0.146401750471   
      0.146697953755   0.147059299564   0.147485315014   0.147975382189   0.148528708428   
      0.149144292118   0.149820884253   0.1505569462   0.151350604323   0.152199602404   
      0.153101253091   0.154052389935   0.155049321899   0.156087792521   0.157162946175   
      0.158269303981   0.159400751977   0.160550543989   0.161711321342   0.162875151022   
      0.164033583249   0.165177728581   0.166298353802   0.167385994895   0.168431084566   
      0.16942409104   0.170355664289   0.171216785552   0.171998915884   0.172694139653   
      0.173295299191   0.17379611733   0.174191305049   0.174476652085   0.174649098864   
      0.174706788605   0.174649098864   0.174476652085   0.174191305049   0.17379611733   
      0.173295299191   0.172694139653   0.171998915884   0.171216785552   0.170355664289   
      0.16942409104   0.168431084566   0.167385994895   0.166298353802   0.165177728581   
      0.164033583249   0.162875151022   0.161711321342   0.160550543989   0.159400751977   
      0.158269303981   0.157162946175   0.156087792521   0.155049321899   0.154052389935   
      0.153101253091   0.152199602404   0.151350604323   0.1505569462   0.149820884253   
      0.149144292118   0.148528708428   0.147975382189   0.147485315014   0.147059299564   
      0.146697953755   0.146401750471   0.146171042663   0.1460060838   0.145907043694   
      0.138362966115   0.138392220416   0.13847995772   0.138626099319   0.138830507639   
      0.139092976605   0.139413218065   0.139790844196   0.140225345864   0.140716066895   
      0.141262174338   0.141862624856   0.142516127564   0.143221103785   0.143975644453   
      0.14477746611   0.145623866789   0.146511683307   0.147437251849   0.148396373921   
      0.149384289972   0.150395663063   0.151424574923   0.152464536557   0.153508515194   
      0.154548978889   0.155577959398   0.156587133192   0.157567919656   0.158511594656   
      0.159409416906   0.160252763889   0.161033273611   0.161742988141   0.162374494818   
      0.162921061098   0.163376759274   0.163736577714   0.163996515744   0.164153659816   
      0.164206239188   0.164153659816   0.163996515744   0.163736577714   0.163376759274   
      0.162921061098   0.162374494818   0.161742988141   0.161033273611   0.160252763889   
      0.159409416906   0.158511594656   0.157567919656   0.156587133192   0.155577959398   
      0.154548978889   0.153508515194   0.152464536557   0.151424574923   0.150395663063   
      0.149384289972   0.148396373921   0.147437251849   0.146511683307   0.145623866789   
      0.14477746611   0.143975644453   0.143221103785   0.142516127564   0.141862624856   
      0.141262174338   0.140716066895   0.140225345864   0.139790844196   0.139413218065   
      0.139092976605   0.138830507639   0.138626099319   0.13847995772   0.138392220416   
      0.128815634174   0.128840024706   0.128913176695   0.129035029798   0.129205478328   
      0.129424363555   0.12969146281   0.130006475368   0.130369004995   0.130778539152   
      0.131234424825   0.131735841079   0.132281768497   0.132870955827   0.133501884335   
      0.13417273056   0.13488132841   0.135625131779   0.136401179146   0.137206061832   
      0.138035897808   0.138886313087   0.139752432763   0.140628883716   0.141509810793   
      0.142388907928   0.143259465192   0.144114432182   0.144946497427   0.145748182796   
      0.146511951096   0.147230324399   0.147896009999   0.148502030452   0.149041853855   
      0.14950952039   0.149899761212   0.150208106004   0.150430975835   0.150565758495   
      0.150610863987   0.150565758495   0.150430975835   0.150208106004   0.149899761212   
      0.14950952039   0.149041853855   0.148502030452   0.147896009999   0.147230324399   
      0.146511951096   0.145748182796   0.144946497427   0.144114432182   0.143259465192   
      0.142388907928   0.141509810793   0.140628883716   0.139752432763   0.138886313087   
      0.138035897808   0.137206061832   0.136401179146   0.135625131779   0.13488132841   
      0.13417273056   0.133501884335   0.132870955827   0.132281768497   0.131735841079   
      0.131234424825   0.130778539152   0.130369004995   0.130006475368   0.12969146281   