<?xml version="1.0"?>
<VTKFile type="ImageData" version="0.1" byte_order="LittleEndian">
  <ImageData WholeExtent="0 79 0 19 0 19" Origin="0 0 0" Spacing="1 1 1">
  <Piece Extent="0 79 0 19 0 19">
    <PointData Scalars="density">
       <DataArray type="Float32" Name="reddensity" NumberOfComponents="1" format="ascii">
      0   0   0   0   0   
      0   0   0   0   0   
      0   0   0   0   0   
      0   0   0   0   0   
      0   0   0   0   0   
      0   0   0   0   0   
      0   0   0   0   0   
      0   0   0   0   0   
      0   0   0   0   0   
      0   0   0   0   0   
      0   0   0   0   0   
      0   0   0   0   0   
      0   0   0   0   0   
      0   0   0   0   0   
      0   0   0   0   0   
      0   0   0   0   0   
      0   0   0   0   0   
      0   0   0   0   0   
      0   0   0   0   0   
      0   0   0   0   0   
      0   0   0   0   0   
      0   0   0   0   0   
      0   0   0   0   0   
      0   0   0   0   0   
      0   0   0   0   0   
      0   0   0   0   0   
      0   0   0   0   0   
      0   0   0   0   0   
      0   0   0   0   0   
      0   0   0   0   0   
      0   0   0   0   0   
      0   0   0   0   0   
      0   0   0   0   0   
      0   0   0   0   0   
      0   0   0   0   0   
      0   0   0   0   0   
      0   0   0   0   0   
      0   0   0   0   0   
      0   0   0   0   0   
      0   0   0   0   0   
      0   0   0   0   0   
      0   0   0   0   0   
      0   0   0   0   0   
      0   0   0   0   0   
      0   0   0   0   0   
      0   0   0   0   0   
      0   0   0   0   0   
      0   0   0   0   0   
      0   0   0   0   0   
      0   0   0   0   0   
      0   0   0   0   0   
      0   0   0   0   0   
      0   0   0   0   0   
      0   0   0   0   0   
      0   0   0   0   0   
      0   0   0   0   0   
      0   0   0   0   0   
      0   0   0   0   0   
      0   0   0   0   0   
      0   0   0   0   0   
      0   0   0   0   0   
      0   0   0   0   0   
      0   0   0   0   0   
      0   0   0   0   0   
      0   0   0   0   0   
      0   0   0   0   0   
      0   0   0   0   0   
      0   0   0   0   0   
      0   0   0   0   0   
      0   0   0   0   0   
      0   0   0   0   0   
      0   0   0   0   0   
      0   0   0   0   0   
      0   0   0   0   0   
      0   0   0   0   0   
      0   0   0   0   0   
      0   0   0   0   0   
      0   0   0   0   0   
      0   0   0   0   0   
      0   0   0   0   0   
      0   0   0   0   0   
      0   0   0   0   0   
      0   0   0   0   0   
      0   0   0   0   0   
      0   0   0   0   0   
      0   0   0   0   0   
      0   0   0   0   0   
      0   0   0   0   0   
      0   0   0   0   0   
      0   0   0   0   0   
      0   0   0   0   0   
      0   0   0   0   0   
      0   0   0   0   0   
      0   0   0   0   0   
      0   0   0   0   0   
      0   0   0   0   0   
      0   0   0   0   0   
      0   0   0   0   0   
      0   0   0   0   0   
      0   0   0   0   0   
      0   0   0   0   0   
      0   0   0   0   0   
      0   0   0   0   0   
      0   0   0   0   0   
      0   0   0   0   0   
      0   0   0   0   0   
      0   0   0   0   0   
      0   0   0   0   0   
      0   0   0   0   0   
      0   0   0   0   0   
      0   0   0   0   0   
      0   0   0   0   0   
      0   0   0   0   0   
      0   0   0   0   0   
      0   0   0   0   0   
      0   0   0   0   0   
      0   0   0   0   0   
      0   0   0   0   0   
      0   0   0   0   0   
      0   0   0   0   0   
      0   0   0   0   0   
      0   0   0   0   0   
      0   0   0   0   0   
      0   0   0   0   0   
      0   0   0   0   0   
      0   0   0   0   0   
      0   0   0   0   0   
      0   0   0   0   0   
      0   0   0   0   0   
      0   0   0   0   0   
      0   0   0   0   0   
      0   0   0   0   0   
      0   0   0   0   0   
      0   0   0   0   0   
      0   0   0   0   0   
      0   0   0   0   0   
      0   0   0   0   0   
      0   0   0   0   0   
      0   0   0   0   0   
      0   0   0   0   0   
      0   0   0   0   0   
      0   0   0   0   0   
      0   0   0   0   0   
      0   0   0   0   0   
      0   0   0   0   0   
      0   0   0   0   0   
      0   0   0   0   0   
      0   0   0   0   0   
      0   0   0   0   0   
      0   0   0   0   0   
      0   0   0   0   0   
      0   0   0   0   0   
      0   0   0   0   0   
      0   0   0   0   0   
      0   0   0   0   0   
      0   0   0   0   0   
      0   0   0   0   0   
      0   0   0   0   0   
      0   0   0   0   0   
      0   0   0   0   0   
      0   0   0   0   0   
      0   0   0   0   0   
      0   0   0   0   0   
      0   0   0   0   0   
      0   0   0   0   0   
      0   0   0   0   0   
      0   0   0   0   0   
      0   0   0   0   0   
      0   0   0   0   0   
      0   0   0   0   0   
      0   0   0   0   0   
      0   0   0   0   0   
      0   0   0   0   0   
      0   0   0   0   0   
      0   0   0   0   0   
      0   0   0   0   0   
      0   0   0   0   0   
      0   0   0   0   0   
      0   0   0   0   0   
      0   0   0   0   0   
      0   0   0   0   0   
      0   0   0   0   0   
      0   0   0   0   0   
      0   0   0   0   0   
      0   0   0   0   0   
      0   0   0   0   0   
      0   0   0   0   0   
      0   0   0   0   0   
      0   0   0   0   0   
      0   0   0   0   0   
      0   0   0   0   0   
      0   0   0   0   0   
      0   0   0   0   0   
      0   0   0   0   0   
      0   0   0   0   0   
      0   0   0   0   0   
      0   0   0   0   0   
      0   0   0   0   0   
      0   0   0   0   0   
      0   0   0   0   0   
      0   0   0   0   0   
      0   0   0   0   0   
      0   0   0   0   0   
      0   0   0   0   0   
      0   0   0   0   0   
      0   0   0   0   0   
      0   0   0   0   0   
      0   0   0   0   0   
      0   0   0   0   0   
      0   0   0   0   0   
      0   0   0   0   0   
      0   0   0   0   0   
      0   0   0   0   0   
      0   0   0   0   0   
      0   0   0   0   0   
      0   0   0   0   0   
      0   0   0   0   0   
      0   0   0   0   0   
      0   0   0   0   0   
      0   0   0   0   0   
      0   0   0   0   0   
      0   0   0   0   0   
      0   0   0   0   0   
      0   0   0   0   0   
      0   0   0   0   0   
      0   0   0   0   0   
      0   0   0   0   0   
      0   0   0   0   0   
      0   0   0   0   0   
      0   0   0   0   0   
      0   0   0   0   0   
      0   0   0   0   0   
      0   0   0   0   0   
      0   0   0   0   0   
      0   0   0   0   0   
      0   0   0   0   0   
      0   0   0   0   0   
      0   0   0   0   0   
      0   0   0   0   0   
      0   0   0   0   0   
      0   0   0   0   0   
      0   0   0   0   0   
      0   0   0   0   0   
      0   0   0   0   0   
      0   0   0   0   0   
      0   0   0   0   0   
      0   0   0   0   0   
      0   0   0   0   0   
      0   0   0   0   0   
      0   0   0   0   0   
      0   0   0   0   0   
      0   0   0   0   0   
      0   0   0   0   0   
      0   0   0   0   0   
      0   0   0   0   0   
      0   0   0   0   0   
      0   0   0   0   0   
      0   0   0   0   0   
      0   0   0   0   0   
      0   0   0   0   0   
      0   0   0   0   0   
      0   0   0   0   0   
      0   0   0   0   0   
      0   0   0   0   0   
      0   0   0   0   0   
      0   0   0   0   0   
      0   0   0   0   0   
      0   0   0   0   0   
      0   0   0   0   0   
      0   0   0   0   0   
      0   0   0   0   0   
      0   0   0   0   0   
      0   0   0   0   0   
      0   0   0   0   0   
      0   0   0   0   0   
      0   0   0   0   0   
      0   0   0   0   0   
      0   0   0   0   0   
      0   0   0   0   0   
      0   0   0   0   0   
      0   0   0   0   0   
      0   0   0   0   0   
      0   0   0   0   0   
      0   0   0   0   0   
      0   0   0   0   0   
      0   0   0   0   0   
      0   0   0   0   0   
      0   0   0   0   0   
      0   0   0   0   0   
      0   0   0   0   0   
      0   0   0   0   0   
      0   0   0   0   0   
      0   0   0   0   0   
      0   0   0   0   0   
      0   0   0   0   0   
      0   0   0   0   0   
      0   0   0   0   0   
      0   0   0   0   0   
      0   0   0   0   0   
      0   0   0   0   0   
      0   0   0   0   0   
      0   0   0   0   0   
      0   0   0   0   0   
      0   0   0   0   0   
      0   0   0   0   0   
      0   0   0   0   0   
      0   0   0   0   0   
      0   0   0   0   0   
      0   0   0   0   0   
      0   0   0   0   0   
      0   0   0   0   0   
      0   0   0   0   0   
      0   0   0   0   0   
      0   0   0   0   0   
      0   0   0   0   0   
      0   0   0   0   0   
      0   0   0   0   0   
      0   0   0   0   0   
      0   0   0   0   0   
      0   0   0   0   0   
      0   0   0   0   0   
      0   0   0   0   0   
      0   0   0   0   0   
      0   0   0   0   0   
      0   0   0   0   0   
      0   0   0   0   0   
      0   0   0   0   0   
      0   0   0   0   0   
      0   0   0   0   0   
      0   0   0   0   0   
      0   0   0   0   0   
      0   0   0   0   0   
      0   0   0   0   0   
      0   0   0   0   0   
      0   0   0   0   0   
      0   0   0   0   0   
      0.0806490275098   0.0806596730816   0.0806916424219   0.0807450335907   0.0808200106098   
      0.0809168042408   0.0810357128527   0.0811771031269   0.0813414102378   0.0815291370033   
      0.0817408513296   0.0819771810712   0.082238805204   0.0825264399743   0.0828408184791   
      0.083182661972   0.0835526411528   0.0839513258195   0.084379121628   0.0848361933659   
      0.0853223751339   0.0858370691584   0.086379136565   0.0869467852162   0.0875374614852   
      0.0881477543624   0.08877332133   0.0894088457472   0.090048034885   0.0906836661444   
      0.0913076864269   0.0919113662521   0.0924855063276   0.0930206902134   0.0935075728806   
      0.0939371917182   0.0943012841857   0.0945925950702   0.0948051562759   0.0949345232507   
      0.0949779544261   0.0949345232507   0.0948051562759   0.0945925950702   0.0943012841857   
      0.0939371917182   0.0935075728806   0.0930206902134   0.0924855063276   0.0919113662521   
      0.0913076864269   0.0906836661444   0.090048034885   0.0894088457472   0.08877332133   
      0.0881477543624   0.0875374614852   0.0869467852162   0.086379136565   0.0858370691584   
      0.0853223751339   0.0848361933659   0.084379121628   0.0839513258195   0.0835526411528   
      0.083182661972   0.0828408184791   0.0825264399743   0.082238805204   0.0819771810712   
      0.0817408513296   0.0815291370033   0.0813414102378   0.0811771031269   0.0810357128527   
      0.0809168042408   0.0808200106098   0.0807450335907   0.0806916424219   0.0806596730816   
      0.0878778332857   0.0878927992416   0.0879377491715   0.0880128395152   0.0881183318015   
      0.0882545936807   0.0884221000239   0.0886214337055   0.088853285511   0.0891184524057   
      0.089417833142   0.0897524198873   0.0901232842234   0.090531555535   0.0909783894973   
      0.0914649241633   0.0919922211075   0.0925611893025   0.0931724899861   0.093826421804   
      0.0945227870467   0.0952607418255   0.0960386354696   0.0968538470841   0.0977026297918   
      0.0985799753359   0.099479513039   0.100393457243   0.101312616043   0.102226471304   
      0.103123335739   0.103990587581   0.104814977632   0.10558299775   0.106281294821   
      0.106897110365   0.10741872351   0.1078358743   0.10814014508   0.108325279911   
      0.108387425321   0.108325279911   0.10814014508   0.1078358743   0.10741872351   
      0.106897110365   0.106281294821   0.10558299775   0.104814977632   0.103990587581   
      0.103123335739   0.102226471304   0.101312616043   0.100393457243   0.099479513039   
      0.0985799753359   0.0977026297918   0.0968538470841   0.0960386354696   0.0952607418255   
      0.0945227870467   0.093826421804   0.0931724899861   0.0925611893025   0.0919922211075   
      0.0914649241633   0.0909783894973   0.090531555535   0.0901232842234   0.0897524198873   
      0.089417833142   0.0891184524057   0.088853285511   0.0886214337055   0.0884221000239   
      0.0882545936807   0.0881183318015   0.0880128395152   0.0879377491715   0.0878927992416   
      0.0997630017139   0.0997869525619   0.0998588991719   0.0999791241212   0.100148099554   
      0.100366488654   0.100635147063   0.10095512355   0.101327658915   0.101754181734   
      0.102236299155   0.102775780369   0.103374529902   0.104034547258   0.104757869008   
      0.105546489107   0.106402253264   0.107326723729   0.10832101207   0.10938557953   
      0.110520007466   0.11172274411   0.112990838273   0.114319675108   0.115702733246   
      0.117131385554   0.118594766945   0.120079731375   0.121570916166   0.123050925321   
      0.124500634997   0.125899614923   0.127226650297   0.128460340792   0.129579747606   
      0.130565056454   0.131398224115   0.132063578176   0.132548343402   0.132843072952   
      0.132941967816   0.132843072952   0.132548343402   0.132063578176   0.131398224115   
      0.130565056454   0.129579747606   0.128460340792   0.127226650297   0.125899614923   
      0.124500634997   0.123050925321   0.121570916166   0.120079731375   0.118594766945   
      0.117131385554   0.115702733246   0.114319675108   0.112990838273   0.11172274411   
      0.110520007466   0.10938557953   0.10832101207   0.107326723729   0.106402253264   
      0.105546489107   0.104757869008   0.104034547258   0.103374529902   0.102775780369   
      0.102236299155   0.101754181734   0.101327658915   0.10095512355   0.100635147063   
      0.100366488654   0.100148099554   0.0999791241212   0.0998588991719   0.0997869525619   
      0.108896875183   0.108930489503   0.109031473699   0.109200251925   0.109437532419   
      0.109744308985   0.110121862022   0.110571757937   0.111095845327   0.111696245725   
      0.112375336002   0.113135718801   0.113980176538   0.114911603738   0.11593291191   
      0.117046900906   0.118256091105   0.119562511985   0.120967445035   0.122471122618   
      0.124072389457   0.125768339532   0.127553947917   0.129421723489   0.131361413443   
      0.133359792796   0.135400570708   0.137464439692   0.139529284065   0.14157055111   
      0.14356177429   0.145475224442   0.147282654332   0.148956095583   0.150468665534   
      0.151795344565   0.152913690799   0.153804467303   0.154452165297   0.154845414192   
      0.154977274678   0.154845414192   0.154452165297   0.153804467303   0.152913690799   
      0.151795344565   0.150468665534   0.148956095583   0.147282654332   0.145475224442   
      0.14356177429   0.14157055111   0.139529284065   0.137464439692   0.135400570708   
      0.133359792796   0.131361413443   0.129421723489   0.127553947917   0.125768339532   
      0.124072389457   0.122471122618   0.120967445035   0.119562511985   0.118256091105   
      0.117046900906   0.11593291191   0.114911603738   0.113980176538   0.113135718801   
      0.112375336002   0.111696245725   0.111095845327   0.110571757937   0.110121862022   
      0.109744308985   0.109437532419   0.109200251925   0.109031473699   0.108930489503   
      0.117226916737   0.117270279986   0.117400558817   0.117618320866   0.117924513235   
      0.118320463312   0.118807878327   0.119388841937   0.120065805405   0.120841570145   
      0.121719257422   0.122702259997   0.123794169403   0.124998671678   0.126319403773   
      0.127759762936   0.129322662481   0.131010229811   0.132823446802   0.134761738758   
      0.136822526023   0.139000761355   0.141288485235   0.143674438755   0.146143777784   
      0.148677931   0.151254636949   0.15384818175   0.156429840666   0.158968506337   
      0.161431467454   0.163785287344   0.16599672478   0.168033640184   0.16986583841   
      0.171465812274   0.172809366203   0.173876113776   0.174649854604   0.175118843385   
      0.175275966889   0.175118843385   0.174649854604   0.173876113776   0.172809366203   
      0.171465812274   0.16986583841   0.168033640184   0.16599672478   0.163785287344   
      0.161431467454   0.158968506337   0.156429840666   0.15384818175   0.151254636949   
      0.148677931   0.146143777784   0.143674438755   0.141288485235   0.139000761355   
      0.136822526023   0.134761738758   0.132823446802   0.131010229811   0.129322662481   
      0.127759762936   0.126319403773   0.124998671678   0.123794169403   0.122702259997   
      0.121719257422   0.120841570145   0.120065805405   0.119388841937   0.118807878327   
      0.118320463312   0.117924513235   0.117618320866   0.117400558817   0.117270279986   
      0.124367657119   0.124419634573   0.124575797557   0.124836838097   0.125203909839   
      0.125678627382   0.12626306318   0.126959739615   0.127771612966   0.128702044878   
      0.129754755756   0.130933753207   0.132243227409   0.133687404394   0.135270347822   
      0.136995700561   0.13886635958   0.140884081867   0.14304902573   0.145359240796   
      0.147810130992   0.150393926436   0.15309921063   0.15591055619   0.15880832291   
      0.161768664422   0.164763773476   0.167762372398   0.170730428032   0.173632044288   
      0.176430465396   0.179089112975   0.181572581726   0.183847530942   0.185883428921   
      0.187653130371   0.189133288761   0.190304622913   0.191152068193   0.191664847015   
      0.191836491771   0.191664847015   0.191152068193   0.190304622913   0.189133288761   
      0.187653130371   0.185883428921   0.183847530942   0.181572581726   0.179089112975   
      0.176430465396   0.173632044288   0.170730428032   0.167762372398   0.164763773476   
      0.161768664422   0.15880832291   0.15591055619   0.15309921063   0.150393926436   
      0.147810130992   0.145359240796   0.14304902573   0.140884081867   0.13886635958   
      0.136995700561   0.135270347822   0.133687404394   0.132243227409   0.130933753207   
      0.129754755756   0.128702044878   0.127771612966   0.126959739615   0.12626306318   
      0.125678627382   0.125203909839   0.124836838097   0.124575797557   0.124419634573   
      0.129983893305   0.130042647974   0.130219174579   0.130514260774   0.130929218442   
      0.131465881055   0.13212659719   0.132914217227   0.133832069078   0.134883917514   
      0.136073900221   0.137406432238   0.138886069141   0.14051731849   0.142304389107   
      0.144250869238   0.146359328205   0.148630842295   0.151064454707   0.153656591122   
      0.156400466062   0.159285528591   0.162297006501   0.16541561253   0.168617471517   
      0.171874311933   0.175153939604   0.178420978909   0.181637833017   0.18476578651   
      0.18776615701   0.19060140058   0.193236088616   0.195637698168   0.197777187583   
      0.19962935898   0.20117303352   0.202391081758   0.203270358966   0.203801595051   
      0.203979282439   0.203801595051   0.203270358966   0.202391081758   0.20117303352   
      0.19962935898   0.197777187583   0.195637698168   0.193236088616   0.19060140058   
      0.18776615701   0.18476578651   0.181637833017   0.178420978909   0.175153939604   
      0.171874311933   0.168617471517   0.16541561253   0.162297006501   0.159285528591   
      0.156400466062   0.153656591122   0.151064454707   0.148630842295   0.146359328205   
      0.144250869238   0.142304389107   0.14051731849   0.138886069141   0.137406432238   
      0.136073900221   0.134883917514   0.133832069078   0.132914217227   0.13212659719   
      0.131465881055   0.130929218442   0.130514260774   0.130219174579   0.130042647974   
      0.133818596453   0.133881942159   0.134072263123   0.134390410419   0.134837800514   
      0.135416410713   0.136128769532   0.136977938512   0.137967480687   0.139101409442   
      0.140384109915   0.14182022355   0.143414485059   0.14517150043   0.147095455037   
      0.149189743203   0.151456515291   0.153896146175   0.156506640014   0.159283000099   
      0.162216607865   0.165294669377   0.168499797379   0.171809798427   0.175197724802   
      0.178632228512   0.182078221585   0.18549780815   0.188851416737   0.192099033874   
      0.195201428379   0.198121262199   0.200824006149   0.203278611918   0.205457927912   
      0.207338879012   0.208902454434   0.210133561506   0.21102080679   0.211556261656   
      0.211735259804   0.211556261656   0.21102080679   0.210133561506   0.208902454434   
      0.207338879012   0.205457927912   0.203278611918   0.200824006149   0.198121262199   
      0.195201428379   0.192099033874   0.188851416737   0.18549780815   0.182078221585   
      0.178632228512   0.175197724802   0.171809798427   0.168499797379   0.165294669377   
      0.162216607865   0.159283000099   0.156506640014   0.153896146175   0.151456515291   
      0.149189743203   0.147095455037   0.14517150043   0.143414485059   0.14182022355   
      0.140384109915   0.139101409442   0.137967480687   0.136977938512   0.136128769532   
      0.135416410713   0.134837800514   0.134390410419   0.134072263123   0.133881942159   
      0.135754182949   0.135819830294   0.136017066687   0.13634677454   0.136810421856   
      0.137410056499   0.138148294675   0.139028299832   0.140053746873   0.141228764937   
      0.142557850415   0.144045740228   0.145697234095   0.147516954012   0.149509029845   
      0.151676702709   0.154021843233   0.156544390516   0.159241729758   0.16210804147   
      0.16513367135   0.168304584319   0.171601975219   0.175002108146   0.178476443381   
      0.181992084494   0.1855125412   0.188998761758   0.192410350645   0.195706861123   
      0.198849044238   0.201799947238   0.204525782188   0.206996523011   0.209186228067   
      0.211073118723   0.212639467474   0.213871360809   0.214758403191   0.21529342193   
      0.215472221451   0.21529342193   0.214758403191   0.213871360809   0.212639467474   
      0.211073118723   0.209186228067   0.206996523011   0.204525782188   0.201799947238   
      0.198849044238   0.195706861123   0.192410350645   0.188998761758   0.1855125412   
      0.181992084494   0.178476443381   0.175002108146   0.171601975219   0.168304584319   
      0.16513367135   0.16210804147   0.159241729758   0.156544390516   0.154021843233   
      0.151676702709   0.149509029845   0.147516954012   0.145697234095   0.144045740228   
      0.142557850415   0.141228764937   0.140053746873   0.139028299832   0.138148294675   
      0.137410056499   0.136810421856   0.13634677454   0.136017066687   0.135819830294   
      0.135754182949   0.135819830294   0.136017066687   0.13634677454   0.136810421856   
      0.137410056499   0.138148294675   0.139028299832   0.140053746873   0.141228764937   
      0.142557850415   0.144045740228   0.145697234095   0.147516954012   0.149509029845   
      0.151676702709   0.154021843233   0.156544390516   0.159241729758   0.16210804147   
      0.16513367135   0.168304584319   0.171601975219   0.175002108146   0.178476443381   
      0.181992084494   0.1855125412   0.188998761758   0.192410350645   0.195706861123   
      0.198849044238   0.201799947238   0.204525782188   0.206996523011   0.209186228067   
      0.211073118723   0.212639467474   0.213871360809   0.214758403191   0.21529342193   
      0.215472221451   0.21529342193   0.214758403191   0.213871360809   0.212639467474   
      0.211073118723   0.209186228067   0.206996523011   0.204525782188   0.201799947238   
      0.198849044238   0.195706861123   0.192410350645   0.188998761758   0.1855125412   
      0.181992084494   0.178476443381   0.175002108146   0.171601975219   0.168304584319   
      0.16513367135   0.16210804147   0.159241729758   0.156544390516   0.154021843233   
      0.151676702709   0.149509029845   0.147516954012   0.145697234095   0.144045740228   
      0.142557850415   0.141228764937   0.140053746873   0.139028299832   0.138148294675   
      0.137410056499   0.136810421856   0.13634677454   0.136017066687   0.135819830294   
      0.133818596453   0.133881942159   0.134072263123   0.134390410419   0.134837800514   
      0.135416410713   0.136128769532   0.136977938512   0.137967480687   0.139101409442   
      0.140384109915   0.14182022355   0.143414485059   0.14517150043   0.147095455037   
      0.149189743203   0.151456515291   0.153896146175   0.156506640014   0.159283000099   
      0.162216607865   0.165294669377   0.168499797379   0.171809798427   0.175197724802   
      0.178632228512   0.182078221585   0.18549780815   0.188851416737   0.192099033874   
      0.195201428379   0.198121262199   0.200824006149   0.203278611918   0.205457927912   
      0.207338879012   0.208902454434   0.210133561506   0.21102080679   0.211556261656   
      0.211735259804   0.211556261656   0.21102080679   0.210133561506   0.208902454434   
      0.207338879012   0.205457927912   0.203278611918   0.200824006149   0.198121262199   
      0.195201428379   0.192099033874   0.188851416737   0.18549780815   0.182078221585   
      0.178632228512   0.175197724802   0.171809798427   0.168499797379   0.165294669377   
      0.162216607865   0.159283000099   0.156506640014   0.153896146175   0.151456515291   
      0.149189743203   0.147095455037   0.14517150043   0.143414485059   0.14182022355   
      0.140384109915   0.139101409442   0.137967480687   0.136977938512   0.136128769532   
      0.135416410713   0.134837800514   0.134390410419   0.134072263123   0.133881942159   
      0.129983893305   0.130042647974   0.130219174579   0.130514260774   0.130929218442   
      0.131465881055   0.13212659719   0.132914217227   0.133832069078   0.134883917514   
      0.136073900221   0.137406432238   0.138886069141   0.14051731849   0.142304389107   
      0.144250869238   0.146359328205   0.148630842295   0.151064454707   0.153656591122   
      0.156400466062   0.159285528591   0.162297006501   0.16541561253   0.168617471517   
      0.171874311933   0.175153939604   0.178420978909   0.181637833017   0.18476578651   
      0.18776615701   0.19060140058   0.193236088616   0.195637698168   0.197777187583   
      0.19962935898   0.20117303352   0.202391081758   0.203270358966   0.203801595051   
      0.203979282439   0.203801595051   0.203270358966   0.202391081758   0.20117303352   
      0.19962935898   0.197777187583   0.195637698168   0.193236088616   0.19060140058   
      0.18776615701   0.18476578651   0.181637833017   0.178420978909   0.175153939604   
      0.171874311933   0.168617471517   0.16541561253   0.162297006501   0.159285528591   
      0.156400466062   0.153656591122   0.151064454707   0.148630842295   0.146359328205   
      0.144250869238   0.142304389107   0.14051731849   0.138886069141   0.137406432238   
      0.136073900221   0.134883917514   0.133832069078   0.132914217227   0.13212659719   
      0.131465881055   0.130929218442   0.130514260774   0.130219174579   0.130042647974   
      0.124367657119   0.124419634573   0.124575797557   0.124836838097   0.125203909839   
      0.125678627382   0.12626306318   0.126959739615   0.127771612966   0.128702044878   
      0.129754755756   0.130933753207   0.132243227409   0.133687404394   0.135270347822   
      0.136995700561   0.13886635958   0.140884081867   0.14304902573   0.145359240796   
      0.147810130992   0.150393926436   0.15309921063   0.15591055619   0.15880832291   
      0.161768664422   0.164763773476   0.167762372398   0.170730428032   0.173632044288   
      0.176430465396   0.179089112975   0.181572581726   0.183847530942   0.185883428921   
      0.187653130371   0.189133288761   0.190304622913   0.191152068193   0.191664847015   
      0.191836491771   0.191664847015   0.191152068193   0.190304622913   0.189133288761   
      0.187653130371   0.185883428921   0.183847530942   0.181572581726   0.179089112975   
      0.176430465396   0.173632044288   0.170730428032   0.167762372398   0.164763773476   
      0.161768664422   0.15880832291   0.15591055619   0.15309921063   0.150393926436   
      0.147810130992   0.145359240796   0.14304902573   0.140884081867   0.13886635958   
      0.136995700561   0.135270347822   0.133687404394   0.132243227409   0.130933753207   
      0.129754755756   0.128702044878   0.127771612966   0.126959739615   0.12626306318   
      0.125678627382   0.125203909839   0.124836838097   0.124575797557   0.124419634573   
      0.117226916737   0.117270279986   0.117400558817   0.117618320866   0.117924513235   
      0.118320463312   0.118807878327   0.119388841937   0.120065805405   0.120841570145   
      0.121719257422   0.122702259997   0.123794169403   0.124998671678   0.126319403773   
      0.127759762936   0.129322662481   0.131010229811   0.132823446802   0.134761738758   
      0.136822526023   0.139000761355   0.141288485235   0.143674438755   0.146143777784   
      0.148677931   0.151254636949   0.15384818175   0.156429840666   0.158968506337   
      0.161431467454   0.163785287344   0.16599672478   0.168033640184   0.16986583841   
      0.171465812274   0.172809366203   0.173876113776   0.174649854604   0.175118843385   
      0.175275966889   0.175118843385   0.174649854604   0.173876113776   0.172809366203   
      0.171465812274   0.16986583841   0.168033640184   0.16599672478   0.163785287344   
      0.161431467454   0.158968506337   0.156429840666   0.15384818175   0.151254636949   
      0.148677931   0.146143777784   0.143674438755   0.141288485235   0.139000761355   
      0.136822526023   0.134761738758   0.132823446802   0.131010229811   0.129322662481   
      0.127759762936   0.126319403773   0.124998671678   0.123794169403   0.122702259997   
      0.121719257422   0.120841570145   0.120065805405   0.119388841937   0.118807878327   
      0.118320463312   0.117924513235   0.117618320866   0.117400558817   0.117270279986   