<?xml version="1.0"?>
<VTKFile type="ImageData" version="0.1" byte_order="LittleEndian">
  <ImageData WholeExtent="0 79 0 19 0 19" Origin="0 0 0" Spacing="1 1 1">
  <Piece Extent="0 79 0 19 0 19">
    <PointData Scalars="density">
       <DataArray type="Float32" Name="reddensity" NumberOfComponents="1" format="ascii">
      0   0   0   0   0   
      0   0   0   0   0   
      0   0   0   0   0   
      0   0   0   0   0   
      0   0   0   0   0   
      0   0   0   0   0   
      0   0   0   0   0   
      0   0   0   0   0   
      0   0   0   0   0   
      0   0   0   0   0   
      0   0   0   0   0   
      0   0   0   0   0   
      0   0   0   0   0   
      0   0   0   0   0   
      0   0   0   0   0   
      0   0   0   0   0   
      0   0   0   0   0   
      0   0   0   0   0   
      0   0   0   0   0   
      0   0   0   0   0   
      0   0   0   0   0   
      0   0   0   0   0   
      0   0   0   0   0   
      0   0   0   0   0   
      0   0   0   0   0   
      0   0   0   0   0   
      0   0   0   0   0   
      0   0   0   0   0   
      0   0   0   0   0   
      0   0   0   0   0   
      0   0   0   0   0   
      0   0   0   0   0   
      0   0   0   0   0   
      0   0   0   0   0   
      0   0   0   0   0   
      0   0   0   0   0   
      0   0   0   0   0   
      0   0   0   0   0   
      0   0   0   0   0   
      0   0   0   0   0   
      0   0   0   0   0   
      0   0   0   0   0   
      0   0   0   0   0   
      0   0   0   0   0   
      0   0   0   0   0   
      0   0   0   0   0   
      0   0   0   0   0   
      0   0   0   0   0   
      0   0   0   0   0   
      0   0   0   0   0   
      0   0   0   0   0   
      0   0   0   0   0   
      0   0   0   0   0   
      0   0   0   0   0   
      0   0   0   0   0   
      0   0   0   0   0   
      0   0   0   0   0   
      0   0   0   0   0   
      0   0   0   0   0   
      0   0   0   0   0   
      0   0   0   0   0   
      0   0   0   0   0   
      0   0   0   0   0   
      0   0   0   0   0   
      0   0   0   0   0   
      0   0   0   0   0   
      0   0   0   0   0   
      0   0   0   0   0   
      0   0   0   0   0   
      0   0   0   0   0   
      0   0   0   0   0   
      0   0   0   0   0   
      0   0   0   0   0   
      0   0   0   0   0   
      0   0   0   0   0   
      0   0   0   0   0   
      0   0   0   0   0   
      0   0   0   0   0   
      0   0   0   0   0   
      0   0   0   0   0   
      0   0   0   0   0   
      0   0   0   0   0   
      0   0   0   0   0   
      0   0   0   0   0   
      0   0   0   0   0   
      0   0   0   0   0   
      0   0   0   0   0   
      0   0   0   0   0   
      0   0   0   0   0   
      0   0   0   0   0   
      0   0   0   0   0   
      0   0   0   0   0   
      0   0   0   0   0   
      0   0   0   0   0   
      0   0   0   0   0   
      0   0   0   0   0   
      0   0   0   0   0   
      0   0   0   0   0   
      0   0   0   0   0   
      0   0   0   0   0   
      0   0   0   0   0   
      0   0   0   0   0   
      0   0   0   0   0   
      0   0   0   0   0   
      0   0   0   0   0   
      0   0   0   0   0   
      0   0   0   0   0   
      0   0   0   0   0   
      0   0   0   0   0   
      0   0   0   0   0   
      0   0   0   0   0   
      0   0   0   0   0   
      0   0   0   0   0   
      0   0   0   0   0   
      0   0   0   0   0   
      0   0   0   0   0   
      0   0   0   0   0   
      0   0   0   0   0   
      0   0   0   0   0   
      0   0   0   0   0   
      0   0   0   0   0   
      0   0   0   0   0   
      0   0   0   0   0   
      0   0   0   0   0   
      0   0   0   0   0   
      0   0   0   0   0   
      0   0   0   0   0   
      0   0   0   0   0   
      0   0   0   0   0   
      0   0   0   0   0   
      0   0   0   0   0   
      0   0   0   0   0   
      0   0   0   0   0   
      0   0   0   0   0   
      0   0   0   0   0   
      0   0   0   0   0   
      0   0   0   0   0   
      0   0   0   0   0   
      0   0   0   0   0   
      0   0   0   0   0   
      0   0   0   0   0   
      0   0   0   0   0   
      0   0   0   0   0   
      0   0   0   0   0   
      0   0   0   0   0   
      0   0   0   0   0   
      0   0   0   0   0   
      0   0   0   0   0   
      0   0   0   0   0   
      0   0   0   0   0   
      0   0   0   0   0   
      0   0   0   0   0   
      0   0   0   0   0   
      0   0   0   0   0   
      0   0   0   0   0   
      0   0   0   0   0   
      0   0   0   0   0   
      0   0   0   0   0   
      0   0   0   0   0   
      0   0   0   0   0   
      0   0   0   0   0   
      0   0   0   0   0   
      0   0   0   0   0   
      0   0   0   0   0   
      0   0   0   0   0   
      0   0   0   0   0   
      0   0   0   0   0   
      0   0   0   0   0   
      0   0   0   0   0   
      0   0   0   0   0   
      0   0   0   0   0   
      0   0   0   0   0   
      0   0   0   0   0   
      0   0   0   0   0   
      0   0   0   0   0   
      0   0   0   0   0   
      0   0   0   0   0   
      0   0   0   0   0   
      0   0   0   0   0   
      0   0   0   0   0   
      0   0   0   0   0   
      0   0   0   0   0   
      0   0   0   0   0   
      0   0   0   0   0   
      0   0   0   0   0   
      0   0   0   0   0   
      0   0   0   0   0   
      0   0   0   0   0   
      0   0   0   0   0   
      0   0   0   0   0   
      0   0   0   0   0   
      0   0   0   0   0   
      0   0   0   0   0   
      0   0   0   0   0   
      0   0   0   0   0   
      0   0   0   0   0   
      0   0   0   0   0   
      0   0   0   0   0   
      0   0   0   0   0   
      0   0   0   0   0   
      0   0   0   0   0   
      0   0   0   0   0   
      0   0   0   0   0   
      0   0   0   0   0   
      0   0   0   0   0   
      0   0   0   0   0   
      0   0   0   0   0   
      0   0   0   0   0   
      0   0   0   0   0   
      0   0   0   0   0   
      0   0   0   0   0   
      0   0   0   0   0   
      0   0   0   0   0   
      0   0   0   0   0   
      0   0   0   0   0   
      0   0   0   0   0   
      0   0   0   0   0   
      0   0   0   0   0   
      0   0   0   0   0   
      0   0   0   0   0   
      0   0   0   0   0   
      0   0   0   0   0   
      0   0   0   0   0   
      0   0   0   0   0   
      0   0   0   0   0   
      0   0   0   0   0   
      0   0   0   0   0   
      0   0   0   0   0   
      0   0   0   0   0   
      0   0   0   0   0   
      0   0   0   0   0   
      0   0   0   0   0   
      0   0   0   0   0   
      0   0   0   0   0   
      0   0   0   0   0   
      0   0   0   0   0   
      0   0   0   0   0   
      0   0   0   0   0   
      0   0   0   0   0   
      0   0   0   0   0   
      0   0   0   0   0   
      0   0   0   0   0   
      0   0   0   0   0   
      0   0   0   0   0   
      0   0   0   0   0   
      0   0   0   0   0   
      0   0   0   0   0   
      0   0   0   0   0   
      0   0   0   0   0   
      0   0   0   0   0   
      0   0   0   0   0   
      0   0   0   0   0   
      0   0   0   0   0   
      0   0   0   0   0   
      0   0   0   0   0   
      0   0   0   0   0   
      0   0   0   0   0   
      0   0   0   0   0   
      0   0   0   0   0   
      0   0   0   0   0   
      0   0   0   0   0   
      0   0   0   0   0   
      0   0   0   0   0   
      0   0   0   0   0   
      0   0   0   0   0   
      0   0   0   0   0   
      0   0   0   0   0   
      0   0   0   0   0   
      0   0   0   0   0   
      0   0   0   0   0   
      0   0   0   0   0   
      0   0   0   0   0   
      0   0   0   0   0   
      0   0   0   0   0   
      0   0   0   0   0   
      0   0   0   0   0   
      0   0   0   0   0   
      0   0   0   0   0   
      0   0   0   0   0   
      0   0   0   0   0   
      0   0   0   0   0   
      0   0   0   0   0   
      0   0   0   0   0   
      0   0   0   0   0   
      0   0   0   0   0   
      0   0   0   0   0   
      0   0   0   0   0   
      0   0   0   0   0   
      0   0   0   0   0   
      0   0   0   0   0   
      0   0   0   0   0   
      0   0   0   0   0   
      0   0   0   0   0   
      0   0   0   0   0   
      0   0   0   0   0   
      0   0   0   0   0   
      0   0   0   0   0   
      0   0   0   0   0   
      0   0   0   0   0   
      0   0   0   0   0   
      0   0   0   0   0   
      0   0   0   0   0   
      0   0   0   0   0   
      0   0   0   0   0   
      0   0   0   0   0   
      0   0   0   0   0   
      0   0   0   0   0   
      0   0   0   0   0   
      0   0   0   0   0   
      0   0   0   0   0   
      0   0   0   0   0   
      0   0   0   0   0   
      0   0   0   0   0   
      0   0   0   0   0   
      0   0   0   0   0   
      0   0   0   0   0   
      0   0   0   0   0   
      0   0   0   0   0   
      0   0   0   0   0   
      0   0   0   0   0   
      0   0   0   0   0   
      0   0   0   0   0   
      0   0   0   0   0   
      0   0   0   0   0   
      0   0   0   0   0   
      0   0   0   0   0   
      0   0   0   0   0   
      0   0   0   0   0   
      0   0   0   0   0   
      0   0   0   0   0   
      0   0   0   0   0   
      0   0   0   0   0   
      0   0   0   0   0   
      0   0   0   0   0   
      0   0   0   0   0   
      0   0   0   0   0   
      0.0843030140308   0.0843062875807   0.0843160972855   0.0843324102161   0.084355171175   
      0.0843843022282   0.0844197020633   0.0844612451849   0.0845087809644   0.0845621325675   
      0.0846210957852   0.0846854378017   0.0847548959396   0.0848291764267   0.0849079532387   
      0.0849908670776   0.0850775245502   0.0851674976204   0.08526032341   0.0853555044255   
      0.0854525092925   0.0855507740696   0.0856497042152   0.0857486772662   0.0858470462754   
      0.085944144038   0.0860392881146   0.0861317866347   0.0862209448369   0.0863060722718   
      0.0863864905666   0.0864615416169   0.086530596049   0.086593061771   0.0866483924109   
      0.086696095435   0.0867357397293   0.0867669624372   0.0867894748566   0.0868030672235   
      0.0868076122377   0.0868030672235   0.0867894748566   0.0867669624372   0.0867357397293   
      0.086696095435   0.0866483924109   0.086593061771   0.086530596049   0.0864615416169   
      0.0863864905666   0.0863060722718   0.0862209448369   0.0861317866347   0.0860392881146   
      0.085944144038   0.0858470462754   0.0857486772662   0.0856497042152   0.0855507740696   
      0.0854525092925   0.0853555044255   0.08526032341   0.0851674976204   0.0850775245502   
      0.0849908670776   0.0849079532387   0.0848291764267   0.0847548959396   0.0846854378017   
      0.0846210957852   0.0845621325675   0.0845087809644   0.0844612451849   0.0844197020633   
      0.0843843022282   0.084355171175   0.0843324102161   0.0843160972855   0.0843062875807   
      0.0931485862074   0.0931532830364   0.0931673580878   0.0931907649115   0.093223425614   
      0.0932652301517   0.0933160353609   0.0933756637418   0.0934439020229   0.0935204995387   
      0.0936051664603   0.0936975719297   0.0937973421549   0.0939040585349   0.0940172558936   
      0.09413642091   0.0942609908436   0.094390352659   0.0945238426634   0.0946607467704   
      0.0948003015071   0.0949416958736   0.0950840741596   0.095226539803   0.0953681603605   
      0.0955079736316   0.0956449949448   0.0957782255838   0.0959066622842   0.0960293076959   
      0.0961451816573   0.0962533330904   0.096352852283   0.096442883295   0.0965226361987   
      0.0965913988479   0.0966485478661   0.096693558553   0.0967260134261   0.0967456091467   
      0.096752161625   0.0967456091467   0.0967260134261   0.096693558553   0.0966485478661   
      0.0965913988479   0.0965226361987   0.096442883295   0.096352852283   0.0962533330904   
      0.0961451816573   0.0960293076959   0.0959066622842   0.0957782255838   0.0956449949448   
      0.0955079736316   0.0953681603605   0.095226539803   0.0950840741596   0.0949416958736   
      0.0948003015071   0.0946607467704   0.0945238426634   0.094390352659   0.0942609908436   
      0.09413642091   0.0940172558936   0.0939040585349   0.0937973421549   0.0936975719297   
      0.0936051664603   0.0935204995387   0.0934439020229   0.0933756637418   0.0933160353609   
      0.0932652301517   0.093223425614   0.0931907649115   0.0931673580878   0.0931532830364   
      0.108423215573   0.108430890323   0.108453889696   0.108492138805   0.108545512024   
      0.108613831771   0.108696866841   0.108794330324   0.108905877138   0.109031101247   
      0.109169532635   0.1093206341   0.109483798004   0.109658343057   0.109843511301   
      0.110038465423   0.110242286571   0.110453972852   0.110672438694   0.110896515259   
      0.111124952115   0.111356420333   0.111589517173   0.111822772514   0.112054657123   
      0.112283592823   0.112507964577   0.11272613443   0.112936457197   0.11313729771   
      0.11332704936   0.113504153635   0.113667120237   0.113814547382   0.113945141779   
      0.114057737817   0.11415131545   0.114225016301   0.114278157526   0.114310243057   
      0.114320971871   0.114310243057   0.114278157526   0.114225016301   0.11415131545   
      0.114057737817   0.113945141779   0.113814547382   0.113667120237   0.113504153635   
      0.11332704936   0.11313729771   0.112936457197   0.11272613443   0.112507964577   
      0.112283592823   0.112054657123   0.111822772514   0.111589517173   0.111356420333   
      0.111124952115   0.110896515259   0.110672438694   0.110453972852   0.110242286571   
      0.110038465423   0.109843511301   0.109658343057   0.109483798004   0.1093206341   
      0.109169532635   0.109031101247   0.108905877138   0.108794330324   0.108696866841   
      0.108613831771   0.108545512024   0.108492138805   0.108453889696   0.108430890323   
      0.121263737029   0.121274621897   0.121307241111   0.121361488144   0.121437184259   
      0.121534076755   0.121651836549   0.121790055163   0.121948241163   0.122125816153   
      0.122322110425   0.122536358387   0.122767693916   0.123015145828   0.123277633635   
      0.123553963829   0.123842826922   0.124142795498   0.124452323537   0.124769747297   
      0.125093287999   0.125421056566   0.125751060653   0.126081214127   0.126409349141   
      0.126733230861   0.127050574837   0.127359066912   0.127656385508   0.127940225972   
      0.128208326644   0.128458496164   0.128688641494   0.128896796048   0.129081147295   
      0.129240063163   0.129372116579   0.129476107497   0.129551081834   0.129596346779   
      0.12961148205   0.129596346779   0.129551081834   0.129476107497   0.129372116579   
      0.129240063163   0.129081147295   0.128896796048   0.128688641494   0.128458496164   
      0.128208326644   0.127940225972   0.127656385508   0.127359066912   0.127050574837   
      0.126733230861   0.126409349141   0.126081214127   0.125751060653   0.125421056566   
      0.125093287999   0.124769747297   0.124452323537   0.124142795498   0.123842826922   
      0.123553963829   0.123277633635   0.123015145828   0.122767693916   0.122536358387   
      0.122322110425   0.122125816153   0.121948241163   0.121790055163   0.121651836549   
      0.121534076755   0.121437184259   0.121361488144   0.121307241111   0.121274621897   
      0.133353993946   0.133368080802   0.133410294911   0.13348049642   0.1335784507   
      0.133703826051   0.133856190576   0.13403500827   0.134239634428   0.1344693105   
      0.134723158512   0.135000175261   0.135299226453   0.13561904105   0.135958206057   
      0.136315162066   0.136688199846   0.137075458324   0.137474924288   0.137884434148   
      0.138301678088   0.138724206894   0.13914944173   0.13957468705   0.139997146778   
      0.1404139438   0.140822142711   0.141218775656   0.14160087099   0.141965484365   
      0.142309731767   0.142630823895   0.142926101219   0.143193068967   0.143429431277   
      0.143633123703   0.143802343294   0.143935575502   0.144031617221   0.144089595376   
      0.144108980561   0.144089595376   0.144031617221   0.143935575502   0.143802343294   
      0.143633123703   0.143429431277   0.143193068967   0.142926101219   0.142630823895   
      0.142309731767   0.141965484365   0.14160087099   0.141218775656   0.140822142711   
      0.1404139438   0.139997146778   0.13957468705   0.13914944173   0.138724206894   
      0.138301678088   0.137884434148   0.137474924288   0.137075458324   0.136688199846   
      0.136315162066   0.135958206057   0.13561904105   0.135299226453   0.135000175261   
      0.134723158512   0.1344693105   0.134239634428   0.13403500827   0.133856190576   
      0.133703826051   0.1335784507   0.13348049642   0.133410294911   0.133368080802   
      0.143814628942   0.143831478962   0.143881972241   0.143965937885   0.144083089237   
      0.144233021161   0.14441520634   0.144628990665   0.144873587844   0.145148073372   
      0.145451378068   0.145782281368   0.146139404661   0.146521204925   0.146925969012   
      0.147351808912   0.147796658379   0.148258271314   0.148734222274   0.149221909529   
      0.149718560986   0.15022124334   0.150726874692   0.151232240833   0.151734015296   
      0.15222878317   0.152713068551   0.153183365402   0.15363617144   0.154068024573   
      0.15447554129   0.154855456306   0.155204662691   0.155520251652   0.155799551112   
      0.156040162232   0.156239993021   0.156397288275   0.156510655111   0.156579083506   
      0.156601961328   0.156579083506   0.156510655111   0.156397288275   0.156239993021   
      0.156040162232   0.155799551112   0.155520251652   0.155204662691   0.154855456306   
      0.15447554129   0.154068024573   0.15363617144   0.153183365402   0.152713068551   
      0.15222878317   0.151734015296   0.151232240833   0.150726874692   0.15022124334   
      0.149718560986   0.149221909529   0.148734222274   0.148258271314   0.147796658379   
      0.147351808912   0.146925969012   0.146521204925   0.146139404661   0.145782281368   
      0.145451378068   0.145148073372   0.144873587844   0.144628990665   0.14441520634   
      0.144233021161   0.144083089237   0.143965937885   0.143881972241   0.143831478962   
      0.152031355243   0.15205031668   0.152107135646   0.152201615492   0.152333426428   
      0.152502102525   0.152707037614   0.152947480209   0.153222527582   0.153531119188   
      0.153872029645   0.154243861531   0.154645038304   0.155073797653   0.155528185686   
      0.15600605231   0.156505048257   0.157022624166   0.157556032148   0.158102330254   
      0.158658390213   0.159220908764   0.159786422838   0.160351328746   0.16091190543   
      0.161464341724   0.162004767424   0.162529287856   0.163034021494   0.163515140059   
      0.163968910421   0.164391737552   0.164780207678   0.165131130793   0.165441581612   
      0.16570893813   0.165930916927   0.166105604468   0.166231483697   0.166307455364   
      0.166332853593   0.166307455364   0.166231483697   0.166105604468   0.165930916927   
      0.16570893813   0.165441581612   0.165131130793   0.164780207678   0.164391737552   
      0.163968910421   0.163515140059   0.163034021494   0.162529287856   0.162004767424   
      0.161464341724   0.16091190543   0.160351328746   0.159786422838   0.159220908764   
      0.158658390213   0.158102330254   0.157556032148   0.157022624166   0.156505048257   
      0.15600605231   0.155528185686   0.155073797653   0.154645038304   0.154243861531   
      0.153872029645   0.153531119188   0.153222527582   0.152947480209   0.152707037614   
      0.152502102525   0.152333426428   0.152201615492   0.152107135646   0.15205031668   
      0.157617517868   0.157637868696   0.157698849761   0.157800246152   0.157941697525   
      0.158122694935   0.15834257651   0.158600522106   0.1588955471   0.159226495526   
      0.159592032782   0.159990638228   0.160420597955   0.160879998129   0.16136671929   
      0.161878432035   0.162412594532   0.16296645232   0.163537040836   0.164121191086   
      0.164715538843   0.165316537673   0.165920476029   0.166523498542   0.167121631513   
      0.167710812509   0.168286923809   0.168845829325   0.169383414482   0.169895628457   
      0.170378528023   0.170828322223   0.171241417002   0.171614458931   0.171944377128   
      0.172228422531   0.172464203715   0.172649718524   0.17278338087   0.172864042152   
      0.172891006878   0.172864042152   0.17278338087   0.172649718524   0.172464203715   
      0.172228422531   0.171944377128   0.171614458931   0.171241417002   0.170828322223   
      0.170378528023   0.169895628457   0.169383414482   0.168845829325   0.168286923809   
      0.167710812509   0.167121631513   0.166523498542   0.165920476029   0.165316537673   
      0.164715538843   0.164121191086   0.163537040836   0.16296645232   0.162412594532   
      0.161878432035   0.16136671929   0.160879998129   0.160420597955   0.159990638228   
      0.159592032782   0.159226495526   0.1588955471   0.158600522106   0.15834257651   
      0.158122694935   0.157941697525   0.157800246152   0.157698849761   0.157637868696   
      0.160426975304   0.160448007822   0.160511030814   0.160615819932   0.160761999053   
      0.16094903703   0.161176243274   0.161442762296   0.16174756738   0.162089453605   
      0.162467030464   0.162878714392   0.163322721526   0.163797061102   0.164299529874   
      0.164827708027   0.165378957015   0.165950419804   0.166539023968   0.167141488044   
      0.167754331542   0.168373888892   0.168996327555   0.169617670404   0.170233822364   
      0.170840601177   0.171433771999   0.172009085437   0.172562318484   0.173089317686   
      0.173586043822   0.174048617254   0.174473363109   0.174856855388   0.175195959155   
      0.175487869945   0.175730149627   0.175920758004   0.17605807954   0.176140944687   
      0.176168645424   0.176140944687   0.17605807954   0.175920758004   0.175730149627   
      0.175487869945   0.175195959155   0.174856855388   0.174473363109   0.174048617254   
      0.173586043822   0.173089317686   0.172562318484   0.172009085437   0.171433771999   
      0.170840601177   0.170233822364   0.169617670404   0.168996327555   0.168373888892   
      0.167754331542   0.167141488044   0.166539023968   0.165950419804   0.165378957015   
      0.164827708027   0.164299529874   0.163797061102   0.163322721526   0.162878714392   
      0.162467030464   0.162089453605   0.16174756738   0.161442762296   0.161176243274   
      0.16094903703   0.160761999053   0.160615819932   0.160511030814   0.160448007822   
      0.160426975304   0.160448007822   0.160511030814   0.160615819932   0.160761999053   
      0.16094903703   0.161176243274   0.161442762296   0.16174756738   0.162089453605   
      0.162467030464   0.162878714392   0.163322721526   0.163797061102   0.164299529874   
      0.164827708027   0.165378957015   0.165950419804   0.166539023968   0.167141488044   
      0.167754331542   0.168373888892   0.168996327555   0.169617670404   0.170233822364   
      0.170840601177   0.171433771999   0.172009085437   0.172562318484   0.173089317686   
      0.173586043822   0.174048617254   0.174473363109   0.174856855388   0.175195959155   
      0.175487869945   0.175730149627   0.175920758004   0.17605807954   0.176140944687   
      0.176168645424   0.176140944687   0.17605807954   0.175920758004   0.175730149627   
      0.175487869945   0.175195959155   0.174856855388   0.174473363109   0.174048617254   
      0.173586043822   0.173089317686   0.172562318484   0.172009085437   0.171433771999   
      0.170840601177   0.170233822364   0.169617670404   0.168996327555   0.168373888892   
      0.167754331542   0.167141488044   0.166539023968   0.165950419804   0.165378957015   
      0.164827708027   0.164299529874   0.163797061102   0.163322721526   0.162878714392   
      0.162467030464   0.162089453605   0.16174756738   0.161442762296   0.161176243274   
      0.16094903703   0.160761999053   0.160615819932   0.160511030814   0.160448007822   
      0.157617517868   0.157637868696   0.157698849761   0.157800246152   0.157941697525   
      0.158122694935   0.15834257651   0.158600522106   0.1588955471   0.159226495526   
      0.159592032782   0.159990638228   0.160420597955   0.160879998129   0.16136671929   
      0.161878432035   0.162412594532   0.16296645232   0.163537040836   0.164121191086   
      0.164715538843   0.165316537673   0.165920476029   0.166523498542   0.167121631513   
      0.167710812509   0.168286923809   0.168845829325   0.169383414482   0.169895628457   
      0.170378528023   0.170828322223   0.171241417002   0.171614458931   0.171944377128   
      0.172228422531   0.172464203715   0.172649718524   0.17278338087   0.172864042152   
      0.172891006878   0.172864042152   0.17278338087   0.172649718524   0.172464203715   
      0.172228422531   0.171944377128   0.171614458931   0.171241417002   0.170828322223   
      0.170378528023   0.169895628457   0.169383414482   0.168845829325   0.168286923809   
      0.167710812509   0.167121631513   0.166523498542   0.165920476029   0.165316537673   
      0.164715538843   0.164121191086   0.163537040836   0.16296645232   0.162412594532   
      0.161878432035   0.16136671929   0.160879998129   0.160420597955   0.159990638228   
      0.159592032782   0.159226495526   0.1588955471   0.158600522106   0.15834257651   
      0.158122694935   0.157941697525   0.157800246152   0.157698849761   0.157637868696   
      0.152031355243   0.15205031668   0.152107135646   0.152201615492   0.152333426428   
      0.152502102525   0.152707037614   0.152947480209   0.153222527582   0.153531119188   
      0.153872029645   0.154243861531   0.154645038304   0.155073797653   0.155528185686   
      0.15600605231   0.156505048257   0.157022624166   0.157556032148   0.158102330254   
      0.158658390213   0.159220908764   0.159786422838   0.160351328746   0.16091190543   
      0.161464341724   0.162004767424   0.162529287856   0.163034021494   0.163515140059   
      0.163968910421   0.164391737552   0.164780207678   0.165131130793   0.165441581612   
      0.16570893813   0.165930916927   0.166105604468   0.166231483697   0.166307455364   
      0.166332853593   0.166307455364   0.166231483697   0.166105604468   0.165930916927   
      0.16570893813   0.165441581612   0.165131130793   0.164780207678   0.164391737552   
      0.163968910421   0.163515140059   0.163034021494   0.162529287856   0.162004767424   
      0.161464341724   0.16091190543   0.160351328746   0.159786422838   0.159220908764   
      0.158658390213   0.158102330254   0.157556032148   0.157022624166   0.156505048257   
      0.15600605231   0.155528185686   0.155073797653   0.154645038304   0.154243861531   
      0.153872029645   0.153531119188   0.153222527582   0.152947480209   0.152707037614   
      0.152502102525   0.152333426428   0.152201615492   0.152107135646   0.15205031668   
      0.143814628942   0.143831478962   0.143881972241   0.143965937885   0.144083089237   
      0.144233021161   0.14441520634   0.144628990665   0.144873587844   0.145148073372   
      0.145451378068   0.145782281368   0.146139404661   0.146521204925   0.146925969012   
      0.147351808912   0.147796658379   0.148258271314   0.148734222274   0.149221909529   
      0.149718560986   0.15022124334   0.150726874692   0.151232240833   0.151734015296   
      0.15222878317   0.152713068551   0.153183365402   0.15363617144   0.154068024573   
      0.15447554129   0.154855456306   0.155204662691   0.155520251652   0.155799551112   
      0.156040162232   0.156239993021   0.156397288275   0.156510655111   0.156579083506   
      0.156601961328   0.156579083506   0.156510655111   0.156397288275   0.156239993021   
      0.156040162232   0.155799551112   0.155520251652   0.155204662691   0.154855456306   
      0.15447554129   0.154068024573   0.15363617144   0.153183365402   0.152713068551   
      0.15222878317   0.151734015296   0.151232240833   0.150726874692   0.15022124334   
      0.149718560986   0.149221909529   0.148734222274   0.148258271314   0.147796658379   
      0.147351808912   0.146925969012   0.146521204925   0.146139404661   0.145782281368   
      0.145451378068   0.145148073372   0.144873587844   0.144628990665   0.14441520634   
      0.144233021161   0.144083089237   0.143965937885   0.143881972241   0.143831478962   
      0.133353993946   0.133368080802   0.133410294911   0.13348049642   0.1335784507   
      0.133703826051   0.133856190576   0.13403500827   0.134239634428   0.1344693105   
      0.134723158512   0.135000175261   0.135299226453   0.13561904105   0.135958206057   
      0.136315162066   0.136688199846   0.137075458324   0.137474924288   0.137884434148   
      0.138301678088   0.138724206894   0.13914944173   0.13957468705   0.139997146778   
      0.1404139438   0.140822142711   0.141218775656   0.14160087099   0.141965484365   
      0.142309731767   0.142630823895   0.142926101219   0.143193068967   0.143429431277   
      0.143633123703   0.143802343294   0.143935575502   0.144031617221   0.144089595376   
      0.144108980561   0.144089595376   0.144031617221   0.143935575502   0.143802343294   
      0.143633123703   0.143429431277   0.143193068967   0.142926101219   0.142630823895   
      0.142309731767   0.141965484365   0.14160087099   0.141218775656   0.140822142711   
      0.1404139438   0.139997146778   0.13957468705   0.13914944173   0.138724206894   
      0.138301678088   0.137884434148   0.137474924288   0.137075458324   0.136688199846   
      0.136315162066   0.135958206057   0.13561904105   0.135299226453   0.135000175261   
      0.134723158512   0.1344693105   0.134239634428   0.13403500827   0.133856190576   
      0.133703826051   0.1335784507   0.13348049642   0.133410294911   0.133368080802   