<?xml version="1.0"?>
<VTKFile type="ImageData" version="0.1" byte_order="LittleEndian">
  <ImageData WholeExtent="0 79 0 19 0 19" Origin="0 0 0" Spacing="1 1 1">
  <Piece Extent="0 79 0 19 0 19">
    <PointData Scalars="density">
       <DataArray type="Float32" Name="reddensity" NumberOfComponents="1" format="ascii">
      0   0   0   0   0   
      0   0   0   0   0   
      0   0   0   0   0   
      0   0   0   0   0   
      0   0   0   0   0   
      0   0   0   0   0   
      0   0   0   0   0   
      0   0   0   0   0   
      0   0   0   0   0   
      0   0   0   0   0   
      0   0   0   0   0   
      0   0   0   0   0   
      0   0   0   0   0   
      0   0   0   0   0   
      0   0   0   0   0   
      0   0   0   0   0   
      0   0   0   0   0   
      0   0   0   0   0   
      0   0   0   0   0   
      0   0   0   0   0   
      0   0   0   0   0   
      0   0   0   0   0   
      0   0   0   0   0   
      0   0   0   0   0   
      0   0   0   0   0   
      0   0   0   0   0   
      0   0   0   0   0   
      0   0   0   0   0   
      0   0   0   0   0   
      0   0   0   0   0   
      0   0   0   0   0   
      0   0   0   0   0   
      0   0   0   0   0   
      0   0   0   0   0   
      0   0   0   0   0   
      0   0   0   0   0   
      0   0   0   0   0   
      0   0   0   0   0   
      0   0   0   0   0   
      0   0   0   0   0   
      0   0   0   0   0   
      0   0   0   0   0   
      0   0   0   0   0   
      0   0   0   0   0   
      0   0   0   0   0   
      0   0   0   0   0   
      0   0   0   0   0   
      0   0   0   0   0   
      0   0   0   0   0   
      0   0   0   0   0   
      0   0   0   0   0   
      0   0   0   0   0   
      0   0   0   0   0   
      0   0   0   0   0   
      0   0   0   0   0   
      0   0   0   0   0   
      0   0   0   0   0   
      0   0   0   0   0   
      0   0   0   0   0   
      0   0   0   0   0   
      0   0   0   0   0   
      0   0   0   0   0   
      0   0   0   0   0   
      0   0   0   0   0   
      0   0   0   0   0   
      0   0   0   0   0   
      0   0   0   0   0   
      0   0   0   0   0   
      0   0   0   0   0   
      0   0   0   0   0   
      0   0   0   0   0   
      0   0   0   0   0   
      0   0   0   0   0   
      0   0   0   0   0   
      0   0   0   0   0   
      0   0   0   0   0   
      0   0   0   0   0   
      0   0   0   0   0   
      0   0   0   0   0   
      0   0   0   0   0   
      0   0   0   0   0   
      0   0   0   0   0   
      0   0   0   0   0   
      0   0   0   0   0   
      0   0   0   0   0   
      0   0   0   0   0   
      0   0   0   0   0   
      0   0   0   0   0   
      0   0   0   0   0   
      0   0   0   0   0   
      0   0   0   0   0   
      0   0   0   0   0   
      0   0   0   0   0   
      0   0   0   0   0   
      0   0   0   0   0   
      0   0   0   0   0   
      0   0   0   0   0   
      0   0   0   0   0   
      0   0   0   0   0   
      0   0   0   0   0   
      0   0   0   0   0   
      0   0   0   0   0   
      0   0   0   0   0   
      0   0   0   0   0   
      0   0   0   0   0   
      0   0   0   0   0   
      0   0   0   0   0   
      0   0   0   0   0   
      0   0   0   0   0   
      0   0   0   0   0   
      0   0   0   0   0   
      0   0   0   0   0   
      0   0   0   0   0   
      0   0   0   0   0   
      0   0   0   0   0   
      0   0   0   0   0   
      0   0   0   0   0   
      0   0   0   0   0   
      0   0   0   0   0   
      0   0   0   0   0   
      0   0   0   0   0   
      0   0   0   0   0   
      0   0   0   0   0   
      0   0   0   0   0   
      0   0   0   0   0   
      0   0   0   0   0   
      0   0   0   0   0   
      0   0   0   0   0   
      0   0   0   0   0   
      0   0   0   0   0   
      0   0   0   0   0   
      0   0   0   0   0   
      0   0   0   0   0   
      0   0   0   0   0   
      0   0   0   0   0   
      0   0   0   0   0   
      0   0   0   0   0   
      0   0   0   0   0   
      0   0   0   0   0   
      0   0   0   0   0   
      0   0   0   0   0   
      0   0   0   0   0   
      0   0   0   0   0   
      0   0   0   0   0   
      0   0   0   0   0   
      0   0   0   0   0   
      0   0   0   0   0   
      0   0   0   0   0   
      0   0   0   0   0   
      0   0   0   0   0   
      0   0   0   0   0   
      0   0   0   0   0   
      0   0   0   0   0   
      0   0   0   0   0   
      0   0   0   0   0   
      0   0   0   0   0   
      0   0   0   0   0   
      0   0   0   0   0   
      0   0   0   0   0   
      0   0   0   0   0   
      0   0   0   0   0   
      0   0   0   0   0   
      0   0   0   0   0   
      0   0   0   0   0   
      0   0   0   0   0   
      0   0   0   0   0   
      0   0   0   0   0   
      0   0   0   0   0   
      0   0   0   0   0   
      0   0   0   0   0   
      0   0   0   0   0   
      0   0   0   0   0   
      0   0   0   0   0   
      0   0   0   0   0   
      0   0   0   0   0   
      0   0   0   0   0   
      0   0   0   0   0   
      0   0   0   0   0   
      0   0   0   0   0   
      0   0   0   0   0   
      0   0   0   0   0   
      0   0   0   0   0   
      0   0   0   0   0   
      0   0   0   0   0   
      0   0   0   0   0   
      0   0   0   0   0   
      0   0   0   0   0   
      0   0   0   0   0   
      0   0   0   0   0   
      0   0   0   0   0   
      0   0   0   0   0   
      0   0   0   0   0   
      0   0   0   0   0   
      0   0   0   0   0   
      0   0   0   0   0   
      0   0   0   0   0   
      0   0   0   0   0   
      0   0   0   0   0   
      0   0   0   0   0   
      0   0   0   0   0   
      0   0   0   0   0   
      0   0   0   0   0   
      0   0   0   0   0   
      0   0   0   0   0   
      0   0   0   0   0   
      0   0   0   0   0   
      0   0   0   0   0   
      0   0   0   0   0   
      0   0   0   0   0   
      0   0   0   0   0   
      0   0   0   0   0   
      0   0   0   0   0   
      0   0   0   0   0   
      0   0   0   0   0   
      0   0   0   0   0   
      0   0   0   0   0   
      0   0   0   0   0   
      0   0   0   0   0   
      0   0   0   0   0   
      0   0   0   0   0   
      0   0   0   0   0   
      0   0   0   0   0   
      0   0   0   0   0   
      0   0   0   0   0   
      0   0   0   0   0   
      0   0   0   0   0   
      0   0   0   0   0   
      0   0   0   0   0   
      0   0   0   0   0   
      0   0   0   0   0   
      0   0   0   0   0   
      0   0   0   0   0   
      0   0   0   0   0   
      0   0   0   0   0   
      0   0   0   0   0   
      0   0   0   0   0   
      0   0   0   0   0   
      0   0   0   0   0   
      0   0   0   0   0   
      0   0   0   0   0   
      0   0   0   0   0   
      0   0   0   0   0   
      0   0   0   0   0   
      0   0   0   0   0   
      0   0   0   0   0   
      0   0   0   0   0   
      0   0   0   0   0   
      0   0   0   0   0   
      0   0   0   0   0   
      0   0   0   0   0   
      0   0   0   0   0   
      0   0   0   0   0   
      0   0   0   0   0   
      0   0   0   0   0   
      0   0   0   0   0   
      0   0   0   0   0   
      0   0   0   0   0   
      0   0   0   0   0   
      0   0   0   0   0   
      0   0   0   0   0   
      0   0   0   0   0   
      0   0   0   0   0   
      0   0   0   0   0   
      0   0   0   0   0   
      0   0   0   0   0   
      0   0   0   0   0   
      0   0   0   0   0   
      0   0   0   0   0   
      0   0   0   0   0   
      0   0   0   0   0   
      0   0   0   0   0   
      0   0   0   0   0   
      0   0   0   0   0   
      0   0   0   0   0   
      0   0   0   0   0   
      0   0   0   0   0   
      0   0   0   0   0   
      0   0   0   0   0   
      0   0   0   0   0   
      0   0   0   0   0   
      0   0   0   0   0   
      0   0   0   0   0   
      0   0   0   0   0   
      0   0   0   0   0   
      0   0   0   0   0   
      0   0   0   0   0   
      0   0   0   0   0   
      0   0   0   0   0   
      0   0   0   0   0   
      0   0   0   0   0   
      0   0   0   0   0   
      0   0   0   0   0   
      0   0   0   0   0   
      0   0   0   0   0   
      0   0   0   0   0   
      0   0   0   0   0   
      0   0   0   0   0   
      0   0   0   0   0   
      0   0   0   0   0   
      0   0   0   0   0   
      0   0   0   0   0   
      0   0   0   0   0   
      0   0   0   0   0   
      0   0   0   0   0   
      0   0   0   0   0   
      0   0   0   0   0   
      0   0   0   0   0   
      0   0   0   0   0   
      0   0   0   0   0   
      0   0   0   0   0   
      0   0   0   0   0   
      0   0   0   0   0   
      0   0   0   0   0   
      0   0   0   0   0   
      0   0   0   0   0   
      0   0   0   0   0   
      0   0   0   0   0   
      0   0   0   0   0   
      0   0   0   0   0   
      0   0   0   0   0   
      0   0   0   0   0   
      0   0   0   0   0   
      0   0   0   0   0   
      0   0   0   0   0   
      0   0   0   0   0   
      0   0   0   0   0   
      0   0   0   0   0   
      0   0   0   0   0   
      0   0   0   0   0   
      0   0   0   0   0   
      0   0   0   0   0   
      0   0   0   0   0   
      0   0   0   0   0   
      0   0   0   0   0   
      0   0   0   0   0   
      0   0   0   0   0   
      0.0845219778905   0.0845246823498   0.0845327852916   0.0845462553533   0.0845650400858   
      0.0845890656919   0.0846182366711   0.0846524353827   0.0846915215419   0.0847353316669   
      0.0847836785014   0.0848363504359   0.0848931109612   0.0849536981853   0.0850178244547   
      0.0850851761174   0.0851554134754   0.085228170969   0.0853030576419   0.0853796579317   
      0.0854575328304   0.0855362214559   0.0856152430671   0.0856940995518   0.0857722784024   
      0.0858492561847   0.0859245024915   0.0859974843567   0.0860676710887   0.0861345394671   
      0.0861975792284   0.0862562987515   0.0863102308393   0.0863589384823   0.0864020204813   
      0.0864391168009   0.0864699135276   0.0864941473085   0.0865116091582   0.0865221475309   
      0.0865256705788   0.0865221475309   0.0865116091582   0.0864941473085   0.0864699135276   
      0.0864391168009   0.0864020204813   0.0863589384823   0.0863102308393   0.0862562987515   
      0.0861975792284   0.0861345394671   0.0860676710887   0.0859974843567   0.0859245024915   
      0.0858492561847   0.0857722784024   0.0856940995518   0.0856152430671   0.0855362214559   
      0.0854575328304   0.0853796579317   0.0853030576419   0.085228170969   0.0851554134754   
      0.0850851761174   0.0850178244547   0.0849536981853   0.0848931109612   0.0848363504359   
      0.0847836785014   0.0847353316669   0.0846915215419   0.0846524353827   0.0846182366711   
      0.0845890656919   0.0845650400858   0.0845462553533   0.0845327852916   0.0845246823498   
      0.093464013523   0.0934678964067   0.0934795302443   0.0934988705141   0.0935258427411   
      0.0935603420987   0.0936022328664   0.0936513477623   0.0937074871717   0.0937704183005   
      0.0938398742851   0.0939155532996   0.0939971177049   0.0940841932888   0.0941763686554   
      0.0942731948228   0.094374185094   0.0944788152696   0.0945865242693   0.094696715231   
      0.0948087571511   0.0949219871267   0.0950357132481   0.0951492181818   0.0952617634679   
      0.0953725945375   0.0954809464386   0.0955860502333   0.0956871400062   0.095783460403   
      0.0958742745871   0.0959588724882   0.0960365791891   0.0961067632852   0.0961688450382   
      0.0962223041388   0.0962666868938   0.0963016126604   0.0963267793617   0.0963419679397   
      0.0963470456259   0.0963419679397   0.0963267793617   0.0963016126604   0.0962666868938   
      0.0962223041388   0.0961688450382   0.0961067632852   0.0960365791891   0.0959588724882   
      0.0958742745871   0.095783460403   0.0956871400062   0.0955860502333   0.0954809464386   
      0.0953725945375   0.0952617634679   0.0951492181818   0.0950357132481   0.0949219871267   
      0.0948087571511   0.094696715231   0.0945865242693   0.0944788152696   0.094374185094   
      0.0942731948228   0.0941763686554   0.0940841932888   0.0939971177049   0.0939155532996   
      0.0938398742851   0.0937704183005   0.0937074871717   0.0936513477623   0.0936022328664   
      0.0935603420987   0.0935258427411   0.0934988705141   0.0934795302443   0.0934678964067   
      0.108940700089   0.108947048157   0.108966068347   0.108997688481   0.109041787786   
      0.109098196218   0.109166693516   0.109247008055   0.109338815515   0.109441737412   
      0.109555339568   0.109679130555   0.109812560225   0.10995501838   0.110105833699   
      0.110264273011   0.110429541031   0.110600780667   0.110777074011   0.110957444131   
      0.111140857769   0.111326229034   0.111512424186   0.111698267555   0.111882548647   
      0.112064030434   0.112241458807   0.112413573127   0.112579117773   0.112736854544   
      0.112885575738   0.11302411769   0.11315137452   0.11326631182   0.113367979984   
      0.113455526894   0.113528209643   0.113585405029   0.113626618537   0.113651491592   
      0.113659806878   0.113651491592   0.113626618537   0.113585405029   0.113528209643   
      0.113455526894   0.113367979984   0.11326631182   0.11315137452   0.11302411769   
      0.112885575738   0.112736854544   0.112579117773   0.112413573127   0.112241458807   
      0.112064030434   0.111882548647   0.111698267555   0.111512424186   0.111326229034   
      0.111140857769   0.110957444131   0.110777074011   0.110600780667   0.110429541031   
      0.110264273011   0.110105833699   0.10995501838   0.109812560225   0.109679130555   
      0.109555339568   0.109441737412   0.109338815515   0.109247008055   0.109166693516   
      0.109098196218   0.109041787786   0.108997688481   0.108966068347   0.108947048157   
      0.121999736453   0.122008738914   0.122035712128   0.122080553379   0.122143090802   
      0.122223082387   0.122320214637   0.122434100913   0.122564279523   0.122710211638   
      0.122871279093   0.123046782206   0.123235937692   0.123437876826   0.12365164397   
      0.123876195624   0.124110400158   0.124353038368   0.124602805042   0.124858311668   
      0.125118090445   0.125380599717   0.12564423095   0.125907317314   0.126168143919   
      0.126424959705   0.126675990934   0.126919456182   0.127153582688   0.127376623841   
      0.127586877551   0.127782705201   0.127962550837   0.128124960206   0.128268599255   
      0.128392271679   0.128494935118   0.128575715604   0.12863391993   0.128669045606   
      0.128680788161   0.128669045606   0.12863391993   0.128575715604   0.128494935118   
      0.128392271679   0.128268599255   0.128124960206   0.127962550837   0.127782705201   
      0.127586877551   0.127376623841   0.127153582688   0.126919456182   0.126675990934   
      0.126424959705   0.126168143919   0.125907317314   0.12564423095   0.125380599717   
      0.125118090445   0.124858311668   0.124602805042   0.124353038368   0.124110400158   
      0.123876195624   0.12365164397   0.123437876826   0.123235937692   0.123046782206   
      0.122871279093   0.122710211638   0.122564279523   0.122434100913   0.122320214637   
      0.122223082387   0.122143090802   0.122080553379   0.122035712128   0.122008738914   
      0.134308334642   0.134319979311   0.134354868607   0.134412868132   0.134493753023   
      0.134597206685   0.134722819072   0.134870084579   0.135038399623   0.135227060005   
      0.135435258167   0.13566208048   0.135906504699   0.13616739777   0.136443514146   
      0.136733494822   0.137035867282   0.13734904655   0.137671337577   0.138000939119   
      0.138335949311   0.138674373081   0.139014131524   0.139353073317   0.139688988211   
      0.140019622576   0.140342696916   0.14065592521   0.140957035867   0.14124379402   
      0.141514024827   0.141765637383   0.141996648819   0.142205208115   0.142389619141   
      0.142548362438   0.142680115254   0.142783769371   0.142858446328   0.142903509646   
      0.142918573793   0.142903509646   0.142858446328   0.142783769371   0.142680115254   
      0.142548362438   0.142389619141   0.142205208115   0.141996648819   0.141765637383   
      0.141514024827   0.14124379402   0.140957035867   0.14065592521   0.140342696916   
      0.140019622576   0.139688988211   0.139353073317   0.139014131524   0.138674373081   
      0.138335949311   0.138000939119   0.137671337577   0.13734904655   0.137035867282   
      0.136733494822   0.136443514146   0.13616739777   0.135906504699   0.13566208048   
      0.135435258167   0.135227060005   0.135038399623   0.134870084579   0.134722819072   
      0.134597206685   0.134493753023   0.134412868132   0.134354868607   0.134319979311   
      0.144957599137   0.144971516756   0.145013215276   0.145082531389   0.145179191909   
      0.145302812299   0.145452894682   0.145628825415   0.145829872317   0.146055181665   
      0.146303775114   0.146574546682   0.146866259998   0.147177546002   0.147506901322   
      0.147852687549   0.148213131646   0.148586327731   0.148970240463   0.149362710243   
      0.149761460434   0.150164106748   0.150568168931   0.150971084817   0.151370226754   
      0.151762920355   0.152146465452   0.152518159056   0.152875320054   0.153215315315   
      0.153535586803   0.153833679236   0.154107267816   0.154354185484   0.154572449175   
      0.154760284524   0.154916148515   0.155038749561   0.155127064603   0.155180352812   
      0.155198165617   0.155180352812   0.155127064603   0.155038749561   0.154916148515   
      0.154760284524   0.154572449175   0.154354185484   0.154107267816   0.153833679236   
      0.153535586803   0.153215315315   0.152875320054   0.152518159056   0.152146465452   
      0.151762920355   0.151370226754   0.150971084817   0.150568168931   0.150164106748   
      0.149761460434   0.149362710243   0.148970240463   0.148586327731   0.148213131646   
      0.147852687549   0.147506901322   0.147177546002   0.146866259998   0.146574546682   
      0.146303775114   0.146055181665   0.145829872317   0.145628825415   0.145452894682   
      0.145302812299   0.145179191909   0.145082531389   0.145013215276   0.144971516756   
      0.153318544316   0.15333419238   0.15338107442   0.153459003651   0.153567667673   
      0.153706626876   0.153875312298   0.154073023014   0.15429892318   0.154552038855   
      0.154831254777   0.155135311267   0.155462801479   0.155812169214   0.156181707539   
      0.156569558483   0.156973714041   0.157392018766   0.157822174184   0.158261745261   
      0.158708169124   0.159158766186   0.159610753786   0.160061262408   0.160507354439   
      0.160946045401   0.16137432748   0.161789195126   0.162187672396   0.162566841669   
      0.162923873293   0.163256055653   0.163560825157   0.163835795559   0.164078786075   
      0.164287847739   0.164461287452   0.16459768926   0.164695932397   0.164755205729   
      0.164775018297   0.164755205729   0.164695932397   0.16459768926   0.164461287452   
      0.164287847739   0.164078786075   0.163835795559   0.163560825157   0.163256055653   
      0.162923873293   0.162566841669   0.162187672396   0.161789195126   0.16137432748   
      0.160946045401   0.160507354439   0.160061262408   0.159610753786   0.159158766186   
      0.158708169124   0.158261745261   0.157822174184   0.157392018766   0.156973714041   
      0.156569558483   0.156181707539   0.155812169214   0.155462801479   0.155135311267   
      0.154831254777   0.154552038855   0.15429892318   0.154073023014   0.153875312298   
      0.153706626876   0.153567667673   0.153459003651   0.15338107442   0.15333419238   
      0.158999626042   0.159016408686   0.159066689026   0.159150263939   0.159266793758   
      0.159415800615   0.159596666232   0.159808629237   0.160050782132   0.160322068078   
      0.16062127765   0.160947045788   0.161297849151   0.161672004123   0.16206766574   
      0.16248282779   0.162915324378   0.1633628332   0.163822880804   0.164292850048   
      0.164769989953   0.165251428113   0.165734185736   0.166215195366   0.166691321228   
      0.1671593821   0.1676161765   0.168058509925   0.168483223806   0.168887225739   
      0.169267520563   0.16962124173   0.169945682452   0.170238326044   0.170496874907   
      0.170719277596   0.170903753461   0.17104881437   0.171153283099   0.171216308026   
      0.171237373834   0.171216308026   0.171153283099   0.17104881437   0.170903753461   
      0.170719277596   0.170496874907   0.170238326044   0.169945682452   0.16962124173   
      0.169267520563   0.168887225739   0.168483223806   0.168058509925   0.1676161765   
      0.1671593821   0.166691321228   0.166215195366   0.165734185736   0.165251428113   
      0.164769989953   0.164292850048   0.163822880804   0.1633628332   0.162915324378   
      0.16248282779   0.16206766574   0.161672004123   0.161297849151   0.160947045788   
      0.16062127765   0.160322068078   0.160050782132   0.159808629237   0.159596666232   
      0.159415800615   0.159266793758   0.159150263939   0.159066689026   0.159016408686   
      0.161855654401   0.161872992216   0.161924935291   0.162011272167   0.162131649267   
      0.162285569222   0.162472388642   0.162691315403   0.162941405616   0.163221560399   
      0.163530522669   0.163866874136   0.164229032755   0.164615250873   0.165023614349   
      0.165452042912   0.165898292045   0.166359956667   0.166834476852   0.167319145836   
      0.167811120483   0.168307434362   0.168805013518   0.16930069496   0.169791247803   
      0.170273396938   0.170743849021   0.171199320484   0.17163656722   0.1720524155   
      0.172443793659   0.172807764006   0.17314155443   0.17344258912   0.173708517848   
      0.173937243263   0.174126945696   0.174276104997   0.174383518992   0.174448318219   
      0.174469976651   0.174448318219   0.174383518992   0.174276104997   0.174126945696   
      0.173937243263   0.173708517848   0.17344258912   0.17314155443   0.172807764006   
      0.172443793659   0.1720524155   0.17163656722   0.171199320484   0.170743849021   
      0.170273396938   0.169791247803   0.16930069496   0.168805013518   0.168307434362   
      0.167811120483   0.167319145836   0.166834476852   0.166359956667   0.165898292045   
      0.165452042912   0.165023614349   0.164615250873   0.164229032755   0.163866874136   
      0.163530522669   0.163221560399   0.162941405616   0.162691315403   0.162472388642   
      0.162285569222   0.162131649267   0.162011272167   0.161924935291   0.161872992216   
      0.161855654401   0.161872992216   0.161924935291   0.162011272167   0.162131649267   
      0.162285569222   0.162472388642   0.162691315403   0.162941405616   0.163221560399   
      0.163530522669   0.163866874136   0.164229032755   0.164615250873   0.165023614349   
      0.165452042912   0.165898292045   0.166359956667   0.166834476852   0.167319145836   
      0.167811120483   0.168307434362   0.168805013518   0.16930069496   0.169791247803   
      0.170273396938   0.170743849021   0.171199320484   0.17163656722   0.1720524155   
      0.172443793659   0.172807764006   0.17314155443   0.17344258912   0.173708517848   
      0.173937243263   0.174126945696   0.174276104997   0.174383518992   0.174448318219   
      0.174469976651   0.174448318219   0.174383518992   0.174276104997   0.174126945696   
      0.173937243263   0.173708517848   0.17344258912   0.17314155443   0.172807764006   
      0.172443793659   0.1720524155   0.17163656722   0.171199320484   0.170743849021   
      0.170273396938   0.169791247803   0.16930069496   0.168805013518   0.168307434362   
      0.167811120483   0.167319145836   0.166834476852   0.166359956667   0.165898292045   
      0.165452042912   0.165023614349   0.164615250873   0.164229032755   0.163866874136   
      0.163530522669   0.163221560399   0.162941405616   0.162691315403   0.162472388642   
      0.162285569222   0.162131649267   0.162011272167   0.161924935291   0.161872992216   
      0.158999626042   0.159016408686   0.159066689026   0.159150263939   0.159266793758   
      0.159415800615   0.159596666232   0.159808629237   0.160050782132   0.160322068078   
      0.16062127765   0.160947045788   0.161297849151   0.161672004123   0.16206766574   
      0.16248282779   0.162915324378   0.1633628332   0.163822880804   0.164292850048   
      0.164769989953   0.165251428113   0.165734185736   0.166215195366   0.166691321228   
      0.1671593821   0.1676161765   0.168058509925   0.168483223806   0.168887225739   
      0.169267520563   0.16962124173   0.169945682452   0.170238326044   0.170496874907   
      0.170719277596   0.170903753461   0.17104881437   0.171153283099   0.171216308026   
      0.171237373834   0.171216308026   0.171153283099   0.17104881437   0.170903753461   
      0.170719277596   0.170496874907   0.170238326044   0.169945682452   0.16962124173   
      0.169267520563   0.168887225739   0.168483223806   0.168058509925   0.1676161765   
      0.1671593821   0.166691321228   0.166215195366   0.165734185736   0.165251428113   
      0.164769989953   0.164292850048   0.163822880804   0.1633628332   0.162915324378   
      0.16248282779   0.16206766574   0.161672004123   0.161297849151   0.160947045788   
      0.16062127765   0.160322068078   0.160050782132   0.159808629237   0.159596666232   
      0.159415800615   0.159266793758   0.159150263939   0.159066689026   0.159016408686   
      0.153318544316   0.15333419238   0.15338107442   0.153459003651   0.153567667673   
      0.153706626876   0.153875312298   0.154073023014   0.15429892318   0.154552038855   
      0.154831254777   0.155135311267   0.155462801479   0.155812169214   0.156181707539   
      0.156569558483   0.156973714041   0.157392018766   0.157822174184   0.158261745261   
      0.158708169124   0.159158766186   0.159610753786   0.160061262408   0.160507354439   
      0.160946045401   0.16137432748   0.161789195126   0.162187672396   0.162566841669   
      0.162923873293   0.163256055653   0.163560825157   0.163835795559   0.164078786075   
      0.164287847739   0.164461287452   0.16459768926   0.164695932397   0.164755205729   
      0.164775018297   0.164755205729   0.164695932397   0.16459768926   0.164461287452   
      0.164287847739   0.164078786075   0.163835795559   0.163560825157   0.163256055653   
      0.162923873293   0.162566841669   0.162187672396   0.161789195126   0.16137432748   
      0.160946045401   0.160507354439   0.160061262408   0.159610753786   0.159158766186   
      0.158708169124   0.158261745261   0.157822174184   0.157392018766   0.156973714041   
      0.156569558483   0.156181707539   0.155812169214   0.155462801479   0.155135311267   
      0.154831254777   0.154552038855   0.15429892318   0.154073023014   0.153875312298   
      0.153706626876   0.153567667673   0.153459003651   0.15338107442   0.15333419238   
      0.144957599137   0.144971516756   0.145013215276   0.145082531389   0.145179191909   
      0.145302812299   0.145452894682   0.145628825415   0.145829872317   0.146055181665   
      0.146303775114   0.146574546682   0.146866259998   0.147177546002   0.147506901322   
      0.147852687549   0.148213131646   0.148586327731   0.148970240463   0.149362710243   
      0.149761460434   0.150164106748   0.150568168931   0.150971084817   0.151370226754   
      0.151762920355   0.152146465452   0.152518159056   0.152875320054   0.153215315315   
      0.153535586803   0.153833679236   0.154107267816   0.154354185484   0.154572449175   
      0.154760284524   0.154916148515   0.155038749561   0.155127064603   0.155180352812   
      0.155198165617   0.155180352812   0.155127064603   0.155038749561   0.154916148515   
      0.154760284524   0.154572449175   0.154354185484   0.154107267816   0.153833679236   
      0.153535586803   0.153215315315   0.152875320054   0.152518159056   0.152146465452   
      0.151762920355   0.151370226754   0.150971084817   0.150568168931   0.150164106748   
      0.149761460434   0.149362710243   0.148970240463   0.148586327731   0.148213131646   
      0.147852687549   0.147506901322   0.147177546002   0.146866259998   0.146574546682   
      0.146303775114   0.146055181665   0.145829872317   0.145628825415   0.145452894682   
      0.145302812299   0.145179191909   0.145082531389   0.145013215276   0.144971516756   
      0.134308334642   0.134319979311   0.134354868607   0.134412868132   0.134493753023   
      0.134597206685   0.134722819072   0.134870084579   0.135038399623   0.135227060005   
      0.135435258167   0.13566208048   0.135906504699   0.13616739777   0.136443514146   
      0.136733494822   0.137035867282   0.13734904655   0.137671337577   0.138000939119   
      0.138335949311   0.138674373081   0.139014131524   0.139353073317   0.139688988211   
      0.140019622576   0.140342696916   0.14065592521   0.140957035867   0.14124379402   
      0.141514024827   0.141765637383   0.141996648819   0.142205208115   0.142389619141   
      0.142548362438   0.142680115254   0.142783769371   0.142858446328   0.142903509646   
      0.142918573793   0.142903509646   0.142858446328   0.142783769371   0.142680115254   
      0.142548362438   0.142389619141   0.142205208115   0.141996648819   0.141765637383   
      0.141514024827   0.14124379402   0.140957035867   0.14065592521   0.140342696916   
      0.140019622576   0.139688988211   0.139353073317   0.139014131524   0.138674373081   
      0.138335949311   0.138000939119   0.137671337577   0.13734904655   0.137035867282   
      0.136733494822   0.136443514146   0.13616739777   0.135906504699   0.13566208048   
      0.135435258167   0.135227060005   0.135038399623   0.134870084579   0.134722819072   