<?xml version="1.0"?>
<VTKFile type="ImageData" version="0.1" byte_order="LittleEndian">
  <ImageData WholeExtent="0 79 0 19 0 19" Origin="0 0 0" Spacing="1 1 1">
  <Piece Extent="0 79 0 19 0 19">
    <PointData Scalars="density">
       <DataArray type="Float32" Name="reddensity" NumberOfComponents="1" format="ascii">
      0   0   0   0   0   
      0   0   0   0   0   
      0   0   0   0   0   
      0   0   0   0   0   
      0   0   0   0   0   
      0   0   0   0   0   
      0   0   0   0   0   
      0   0   0   0   0   
      0   0   0   0   0   
      0   0   0   0   0   
      0   0   0   0   0   
      0   0   0   0   0   
      0   0   0   0   0   
      0   0   0   0   0   
      0   0   0   0   0   
      0   0   0   0   0   
      0   0   0   0   0   
      0   0   0   0   0   
      0   0   0   0   0   
      0   0   0   0   0   
      0   0   0   0   0   
      0   0   0   0   0   
      0   0   0   0   0   
      0   0   0   0   0   
      0   0   0   0   0   
      0   0   0   0   0   
      0   0   0   0   0   
      0   0   0   0   0   
      0   0   0   0   0   
      0   0   0   0   0   
      0   0   0   0   0   
      0   0   0   0   0   
      0   0   0   0   0   
      0   0   0   0   0   
      0   0   0   0   0   
      0   0   0   0   0   
      0   0   0   0   0   
      0   0   0   0   0   
      0   0   0   0   0   
      0   0   0   0   0   
      0   0   0   0   0   
      0   0   0   0   0   
      0   0   0   0   0   
      0   0   0   0   0   
      0   0   0   0   0   
      0   0   0   0   0   
      0   0   0   0   0   
      0   0   0   0   0   
      0   0   0   0   0   
      0   0   0   0   0   
      0   0   0   0   0   
      0   0   0   0   0   
      0   0   0   0   0   
      0   0   0   0   0   
      0   0   0   0   0   
      0   0   0   0   0   
      0   0   0   0   0   
      0   0   0   0   0   
      0   0   0   0   0   
      0   0   0   0   0   
      0   0   0   0   0   
      0   0   0   0   0   
      0   0   0   0   0   
      0   0   0   0   0   
      0   0   0   0   0   
      0   0   0   0   0   
      0   0   0   0   0   
      0   0   0   0   0   
      0   0   0   0   0   
      0   0   0   0   0   
      0   0   0   0   0   
      0   0   0   0   0   
      0   0   0   0   0   
      0   0   0   0   0   
      0   0   0   0   0   
      0   0   0   0   0   
      0   0   0   0   0   
      0   0   0   0   0   
      0   0   0   0   0   
      0   0   0   0   0   
      0   0   0   0   0   
      0   0   0   0   0   
      0   0   0   0   0   
      0   0   0   0   0   
      0   0   0   0   0   
      0   0   0   0   0   
      0   0   0   0   0   
      0   0   0   0   0   
      0   0   0   0   0   
      0   0   0   0   0   
      0   0   0   0   0   
      0   0   0   0   0   
      0   0   0   0   0   
      0   0   0   0   0   
      0   0   0   0   0   
      0   0   0   0   0   
      0   0   0   0   0   
      0   0   0   0   0   
      0   0   0   0   0   
      0   0   0   0   0   
      0   0   0   0   0   
      0   0   0   0   0   
      0   0   0   0   0   
      0   0   0   0   0   
      0   0   0   0   0   
      0   0   0   0   0   
      0   0   0   0   0   
      0   0   0   0   0   
      0   0   0   0   0   
      0   0   0   0   0   
      0   0   0   0   0   
      0   0   0   0   0   
      0   0   0   0   0   
      0   0   0   0   0   
      0   0   0   0   0   
      0   0   0   0   0   
      0   0   0   0   0   
      0   0   0   0   0   
      0   0   0   0   0   
      0   0   0   0   0   
      0   0   0   0   0   
      0   0   0   0   0   
      0   0   0   0   0   
      0   0   0   0   0   
      0   0   0   0   0   
      0   0   0   0   0   
      0   0   0   0   0   
      0   0   0   0   0   
      0   0   0   0   0   
      0   0   0   0   0   
      0   0   0   0   0   
      0   0   0   0   0   
      0   0   0   0   0   
      0   0   0   0   0   
      0   0   0   0   0   
      0   0   0   0   0   
      0   0   0   0   0   
      0   0   0   0   0   
      0   0   0   0   0   
      0   0   0   0   0   
      0   0   0   0   0   
      0   0   0   0   0   
      0   0   0   0   0   
      0   0   0   0   0   
      0   0   0   0   0   
      0   0   0   0   0   
      0   0   0   0   0   
      0   0   0   0   0   
      0   0   0   0   0   
      0   0   0   0   0   
      0   0   0   0   0   
      0   0   0   0   0   
      0   0   0   0   0   
      0   0   0   0   0   
      0   0   0   0   0   
      0   0   0   0   0   
      0   0   0   0   0   
      0   0   0   0   0   
      0   0   0   0   0   
      0   0   0   0   0   
      0   0   0   0   0   
      0   0   0   0   0   
      0   0   0   0   0   
      0   0   0   0   0   
      0   0   0   0   0   
      0   0   0   0   0   
      0   0   0   0   0   
      0   0   0   0   0   
      0   0   0   0   0   
      0   0   0   0   0   
      0   0   0   0   0   
      0   0   0   0   0   
      0   0   0   0   0   
      0   0   0   0   0   
      0   0   0   0   0   
      0   0   0   0   0   
      0   0   0   0   0   
      0   0   0   0   0   
      0   0   0   0   0   
      0   0   0   0   0   
      0   0   0   0   0   
      0   0   0   0   0   
      0   0   0   0   0   
      0   0   0   0   0   
      0   0   0   0   0   
      0   0   0   0   0   
      0   0   0   0   0   
      0   0   0   0   0   
      0   0   0   0   0   
      0   0   0   0   0   
      0   0   0   0   0   
      0   0   0   0   0   
      0   0   0   0   0   
      0   0   0   0   0   
      0   0   0   0   0   
      0   0   0   0   0   
      0   0   0   0   0   
      0   0   0   0   0   
      0   0   0   0   0   
      0   0   0   0   0   
      0   0   0   0   0   
      0   0   0   0   0   
      0   0   0   0   0   
      0   0   0   0   0   
      0   0   0   0   0   
      0   0   0   0   0   
      0   0   0   0   0   
      0   0   0   0   0   
      0   0   0   0   0   
      0   0   0   0   0   
      0   0   0   0   0   
      0   0   0   0   0   
      0   0   0   0   0   
      0   0   0   0   0   
      0   0   0   0   0   
      0   0   0   0   0   
      0   0   0   0   0   
      0   0   0   0   0   
      0   0   0   0   0   
      0   0   0   0   0   
      0   0   0   0   0   
      0   0   0   0   0   
      0   0   0   0   0   
      0   0   0   0   0   
      0   0   0   0   0   
      0   0   0   0   0   
      0   0   0   0   0   
      0   0   0   0   0   
      0   0   0   0   0   
      0   0   0   0   0   
      0   0   0   0   0   
      0   0   0   0   0   
      0   0   0   0   0   
      0   0   0   0   0   
      0   0   0   0   0   
      0   0   0   0   0   
      0   0   0   0   0   
      0   0   0   0   0   
      0   0   0   0   0   
      0   0   0   0   0   
      0   0   0   0   0   
      0   0   0   0   0   
      0   0   0   0   0   
      0   0   0   0   0   
      0   0   0   0   0   
      0   0   0   0   0   
      0   0   0   0   0   
      0   0   0   0   0   
      0   0   0   0   0   
      0   0   0   0   0   
      0   0   0   0   0   
      0   0   0   0   0   
      0   0   0   0   0   
      0   0   0   0   0   
      0   0   0   0   0   
      0   0   0   0   0   
      0   0   0   0   0   
      0   0   0   0   0   
      0   0   0   0   0   
      0   0   0   0   0   
      0   0   0   0   0   
      0   0   0   0   0   
      0   0   0   0   0   
      0   0   0   0   0   
      0   0   0   0   0   
      0   0   0   0   0   
      0   0   0   0   0   
      0   0   0   0   0   
      0   0   0   0   0   
      0   0   0   0   0   
      0   0   0   0   0   
      0   0   0   0   0   
      0   0   0   0   0   
      0   0   0   0   0   
      0   0   0   0   0   
      0   0   0   0   0   
      0   0   0   0   0   
      0   0   0   0   0   
      0   0   0   0   0   
      0   0   0   0   0   
      0   0   0   0   0   
      0   0   0   0   0   
      0   0   0   0   0   
      0   0   0   0   0   
      0   0   0   0   0   
      0   0   0   0   0   
      0   0   0   0   0   
      0   0   0   0   0   
      0   0   0   0   0   
      0   0   0   0   0   
      0   0   0   0   0   
      0   0   0   0   0   
      0   0   0   0   0   
      0   0   0   0   0   
      0   0   0   0   0   
      0   0   0   0   0   
      0   0   0   0   0   
      0   0   0   0   0   
      0   0   0   0   0   
      0   0   0   0   0   
      0   0   0   0   0   
      0   0   0   0   0   
      0   0   0   0   0   
      0   0   0   0   0   
      0   0   0   0   0   
      0   0   0   0   0   
      0   0   0   0   0   
      0   0   0   0   0   
      0   0   0   0   0   
      0   0   0   0   0   
      0   0   0   0   0   
      0   0   0   0   0   
      0   0   0   0   0   
      0   0   0   0   0   
      0   0   0   0   0   
      0   0   0   0   0   
      0   0   0   0   0   
      0   0   0   0   0   
      0   0   0   0   0   
      0   0   0   0   0   
      0   0   0   0   0   
      0   0   0   0   0   
      0   0   0   0   0   
      0   0   0   0   0   
      0   0   0   0   0   
      0   0   0   0   0   
      0   0   0   0   0   
      0   0   0   0   0   
      0   0   0   0   0   
      0   0   0   0   0   
      0   0   0   0   0   
      0   0   0   0   0   
      0   0   0   0   0   
      0   0   0   0   0   
      0   0   0   0   0   
      0   0   0   0   0   
      0.0847261511828   0.0847283061086   0.0847347615165   0.0847454892776   0.0847604424398   
      0.0847795551278   0.0848027424103   0.084829900145   0.0848609048113   0.0848956133451   
      0.0849338629913   0.0849754711923   0.0850202355329   0.0850679337645   0.0851183239311   
      0.0851711446239   0.0852261153901   0.0852829373201   0.0853412938409   0.0854008517373   
      0.0854612624239   0.0855221634849   0.0855831804947   0.0856439291286   0.0857040175641   
      0.0857630491667   0.0858206254467   0.0858763492639   0.0859298282485   0.0859806783974   
      0.0860285277983   0.0860730204221   0.0861138199235   0.0861506133784   0.0861831148894   
      0.0862110689835   0.0862342537322   0.0862524835256   0.0862656114355   0.0862735311161   
      0.0862761781939   0.0862735311161   0.0862656114355   0.0862524835256   0.0862342537322   
      0.0862110689835   0.0861831148894   0.0861506133784   0.0861138199235   0.0860730204221   
      0.0860285277983   0.0859806783974   0.0859298282485   0.0858763492639   0.0858206254467   
      0.0857630491667   0.0857040175641   0.0856439291286   0.0855831804947   0.0855221634849   
      0.0854612624239   0.0854008517373   0.0853412938409   0.0852829373201   0.0852261153901   
      0.0851711446239   0.0851183239311   0.0850679337645   0.0850202355329   0.0849754711923   
      0.0849338629913   0.0848956133451   0.0848609048113   0.084829900145   0.0848027424103   
      0.0847795551278   0.0847604424398   0.0847454892776   0.0847347615165   0.0847283061086   
      0.0937580750028   0.0937611706646   0.0937704442914   0.0937858557746   0.0938073381561   
      0.0938347974692   0.0938681125293   0.0939071346863   0.0939516875552   0.094001566747   
      0.0940565396207   0.0941163450857   0.0941806934838   0.0942492665844   0.0943217177279   
      0.0943976721544   0.0944767275565   0.0945584548936   0.0946423995056   0.0947280825605   
      0.0948150028678   0.0949026390828   0.0949904523235   0.0950778892094   0.095164385326   
      0.0952493691052   0.095332266101   0.095412503628   0.0954895157149   0.0955627483148   
      0.0956316647012   0.0956957509652   0.0957545215237   0.0958075245385   0.0958543471408   
      0.095894620358   0.095928023636   0.0959542888588   0.0959732037755   0.095984614753   
      0.0959884287913   0.095984614753   0.0959732037755   0.0959542888588   0.095928023636   
      0.095894620358   0.0958543471408   0.0958075245385   0.0957545215237   0.0956957509652   
      0.0956316647012   0.0955627483148   0.0954895157149   0.095412503628   0.095332266101   
      0.0952493691052   0.095164385326   0.0950778892094   0.0949904523235   0.0949026390828   
      0.0948150028678   0.0947280825605   0.0946423995056   0.0945584548936   0.0944767275565   
      0.0943976721544   0.0943217177279   0.0942492665844   0.0941806934838   0.0941163450857   
      0.0940565396207   0.094001566747   0.0939516875552   0.0939071346863   0.0938681125293   
      0.0938347974692   0.0938073381561   0.0937858557746   0.0937704442914   0.0937611706646   
      0.109422961637   0.109428024821   0.109443192639   0.109468399825   0.109503537412   
      0.109548452447   0.109602947621   0.109666780835   0.109739664713   0.109821266126   
      0.109911205733   0.110009057617   0.11011434904   0.110226560395   0.110345125394   
      0.110469431579   0.110598821188   0.11073259247   0.110870001496   0.111010264523   
      0.111152560962   0.111296037006   0.11143980993   0.111582973097   0.111724601659   
      0.111863758948   0.111999503515   0.112130896763   0.112257011091   0.112376938458   
      0.112489799243   0.112594751269   0.112690998832   0.112777801583   0.112854483078   
      0.112920438842   0.112975143764   0.113018158664   0.113049135889   0.113067823812   
      0.113074070119   0.113067823812   0.113049135889   0.113018158664   0.112975143764   
      0.112920438842   0.112854483078   0.112777801583   0.112690998832   0.112594751269   
      0.112489799243   0.112376938458   0.112257011091   0.112130896763   0.111999503515   
      0.111863758948   0.111724601659   0.111582973097   0.11143980993   0.111296037006   
      0.111152560962   0.111010264523   0.110870001496   0.11073259247   0.110598821188   
      0.110469431579   0.110345125394   0.110226560395   0.11011434904   0.110009057617   
      0.109911205733   0.109821266126   0.109739664713   0.109666780835   0.109602947621   
      0.109548452447   0.109503537412   0.109468399825   0.109443192639   0.109428024821   
      0.122685129672   0.122692308871   0.122713815551   0.122749556869   0.122799377813   
      0.122863060799   0.122940325146   0.123030826451   0.123134155914   0.123249839655   
      0.123377338088   0.123516045412   0.123665289301   0.123824330865   0.12399236497   
      0.124168521014   0.12435186423   0.124541397632   0.124736064662   0.124934752639   
      0.125136297073   0.125339486895   0.125543070651   0.125745763678   0.125946256258   
      0.126143222721   0.126335331452   0.126521255698   0.12669968508   0.126869337658   
      0.127028972387   0.127177401767   0.127313504476   0.127436237766   0.127544649386   
      0.127637888783   0.127715217378   0.127776017673   0.127819800998   0.127846213735   
      0.127855041865   0.127846213735   0.127819800998   0.127776017673   0.127715217378   
      0.127637888783   0.127544649386   0.127436237766   0.127313504476   0.127177401767   
      0.127028972387   0.126869337658   0.12669968508   0.126521255698   0.126335331452   
      0.126143222721   0.125946256258   0.125745763678   0.125543070651   0.125339486895   
      0.125136297073   0.124934752639   0.124736064662   0.124541397632   0.12435186423   
      0.124168521014   0.12399236497   0.123824330865   0.123665289301   0.123516045412   
      0.123377338088   0.123249839655   0.123134155914   0.123030826451   0.122940325146   
      0.122863060799   0.122799377813   0.122749556869   0.122713815551   0.122692308871   
      0.135196166339   0.135205447463   0.135233250503   0.135279454353   0.135343856828   
      0.135426174165   0.135526040375   0.135643006479   0.135776539689   0.135926022592   
      0.136090752428   0.136269940531   0.136462712047   0.136668106022   0.136885075971   
      0.137112491053   0.137349137945   0.137593723552   0.137844878639   0.138101162499   
      0.138361068727   0.138623032172   0.138885437108   0.139146626648   0.139404913374   
      0.139658591153   0.13990594805   0.140145280224   0.140374906665   0.140593184573   
      0.140798525175   0.140989409732   0.14116440548   0.141322181206   0.141461522197   
      0.141581344259   0.141680706519   0.141758822776   0.141815071128   0.141849001695   
      0.141860342259   0.141849001695   0.141815071128   0.141758822776   0.141680706519   
      0.141581344259   0.141461522197   0.141322181206   0.14116440548   0.140989409732   
      0.140798525175   0.140593184573   0.140374906665   0.140145280224   0.13990594805   
      0.139658591153   0.139404913374   0.139146626648   0.138885437108   0.138623032172   
      0.138361068727   0.138101162499   0.137844878639   0.137593723552   0.137349137945   
      0.137112491053   0.136885075971   0.136668106022   0.136462712047   0.136269940531   
      0.136090752428   0.135926022592   0.135776539689   0.135643006479   0.135526040375   
      0.135426174165   0.135343856828   0.135279454353   0.135233250503   0.135205447463   
      0.146019685984   0.146030769642   0.146063971842   0.146119146134   0.146196048057   
      0.146294334592   0.146413563447   0.146553192232   0.14671257759   0.146890974355   
      0.147087534843   0.147301308369   0.147531241117   0.147776176477   0.148034855991   
      0.14830592102   0.148587915293   0.148879288441   0.149178400651   0.149483528542   
      0.149792872356   0.150104564516   0.150416679616   0.150727245826   0.151034257696   
      0.15133569029   0.151629514553   0.151913713754   0.152186300825   0.152445336389   
      0.1526889472   0.152915344735   0.153122843627   0.15330987962   0.153475026737   
      0.153617013324   0.153734736678   0.153827275969   0.153893903186   0.153934091904   
      0.153947523671   0.153934091904   0.153893903186   0.153827275969   0.153734736678   
      0.153617013324   0.153475026737   0.15330987962   0.153122843627   0.152915344735   
      0.1526889472   0.152445336389   0.152186300825   0.151913713754   0.151629514553   
      0.15133569029   0.151034257696   0.150727245826   0.150416679616   0.150104564516   
      0.149792872356   0.149483528542   0.149178400651   0.148879288441   0.148587915293   
      0.14830592102   0.148034855991   0.147776176477   0.147531241117   0.147301308369   
      0.147087534843   0.146890974355   0.14671257759   0.146553192232   0.146413563447   
      0.146294334592   0.146196048057   0.146119146134   0.146063971842   0.146030769642   
      0.15451331514   0.154525766103   0.154563063481   0.154625040628   0.154711419407   
      0.154821809638   0.154955708377   0.155112499099   0.155291450847   0.155491717459   
      0.15571233695   0.155952231197   0.156210206039   0.15648495193   0.156775045295   
      0.157078950739   0.157395024235   0.157721517447   0.158056583304   0.158398282938   
      0.158744594076   0.15909342094   0.159442605697   0.159789941444   0.16013318669   
      0.160470081245   0.160798363389   0.16111578816   0.161420146537   0.161709285283   
      0.161981127166   0.16223369125   0.162465112936   0.162673663418   0.162857768215   
      0.163016024444   0.163147216524   0.163250330008   0.163324563292   0.163369336963   
      0.163384300609   0.163369336963   0.163324563292   0.163250330008   0.163147216524   
      0.163016024444   0.162857768215   0.162673663418   0.162465112936   0.16223369125   
      0.161981127166   0.161709285283   0.161420146537   0.16111578816   0.160798363389   
      0.160470081245   0.16013318669   0.159789941444   0.159442605697   0.15909342094   
      0.158744594076   0.158398282938   0.158056583304   0.157721517447   0.157395024235   
      0.157078950739   0.156775045295   0.15648495193   0.156210206039   0.155952231197   
      0.15571233695   0.155491717459   0.155291450847   0.155112499099   0.154955708377   
      0.154821809638   0.154711419407   0.154625040628   0.154563063481   0.154525766103   
      0.160281380227   0.160294724454   0.160334697018   0.160401117449   0.16049368458   
      0.160611976002   0.160755447372   0.160923431629   0.16111513821   0.161329652354   
      0.161565934626   0.161822820761   0.162099021993   0.162393126001   0.162703598623   
      0.163028786498   0.163366920779   0.163716122062   0.164074406655   0.164439694299   
      0.164809817424   0.165182531999   0.165555529983   0.165926453387   0.166292909861   
      0.16665248972   0.167002784263   0.167341405198   0.16766600494   0.167974297532   
      0.168264079883   0.168533253011   0.168779842961   0.169002021049   0.169198123091   
      0.16936666729   0.169506370451   0.169616162246   0.169695197262   0.169742864612   
      0.169758794928   0.169742864612   0.169695197262   0.169616162246   0.169506370451   
      0.16936666729   0.169198123091   0.169002021049   0.168779842961   0.168533253011   
      0.168264079883   0.167974297532   0.16766600494   0.167341405198   0.167002784263   
      0.16665248972   0.166292909861   0.165926453387   0.165555529983   0.165182531999   
      0.164809817424   0.164439694299   0.164074406655   0.163716122062   0.163366920779   
      0.163028786498   0.162703598623   0.162393126001   0.162099021993   0.161822820761   
      0.161565934626   0.161329652354   0.16111513821   0.160923431629   0.160755447372   
      0.160611976002   0.16049368458   0.160401117449   0.160334697018   0.160294724454   
      0.163179962207   0.163193742355   0.163235020356   0.163303608766   0.163399194805   
      0.163521339822   0.163669478625   0.163842918729   0.164040839618   0.164262292112   
      0.164506197971   0.164771349849   0.165056411765   0.165359920213   0.165680286086   
      0.166015797567   0.166364624128   0.166724821789   0.167094339763   0.167471028585   
      0.167852649825   0.168236887416   0.168621360627   0.169003638647   0.169381256725   
      0.169751733743   0.170112591085   0.170461372591   0.170795665372   0.171113121209   
      0.171411478241   0.171688582613   0.171942409765   0.172171084984   0.172372902915   
      0.172546345669   0.172690099233   0.172803067882   0.172884386336   0.172933429462   
      0.172949819324   0.172933429462   0.172884386336   0.172803067882   0.172690099233   
      0.172546345669   0.172372902915   0.172171084984   0.171942409765   0.171688582613   
      0.171411478241   0.171113121209   0.170795665372   0.170461372591   0.170112591085   
      0.169751733743   0.169381256725   0.169003638647   0.168621360627   0.168236887416   
      0.167852649825   0.167471028585   0.167094339763   0.166724821789   0.166364624128   
      0.166015797567   0.165680286086   0.165359920213   0.165056411765   0.164771349849   
      0.164506197971   0.164262292112   0.164040839618   0.163842918729   0.163669478625   
      0.163521339822   0.163399194805   0.163303608766   0.163235020356   0.163193742355   
      0.163179962207   0.163193742355   0.163235020356   0.163303608766   0.163399194805   
      0.163521339822   0.163669478625   0.163842918729   0.164040839618   0.164262292112   
      0.164506197971   0.164771349849   0.165056411765   0.165359920213   0.165680286086   
      0.166015797567   0.166364624128   0.166724821789   0.167094339763   0.167471028585   
      0.167852649825   0.168236887416   0.168621360627   0.169003638647   0.169381256725   
      0.169751733743   0.170112591085   0.170461372591   0.170795665372   0.171113121209   
      0.171411478241   0.171688582613   0.171942409765   0.172171084984   0.172372902915   
      0.172546345669   0.172690099233   0.172803067882   0.172884386336   0.172933429462   
      0.172949819324   0.172933429462   0.172884386336   0.172803067882   0.172690099233   
      0.172546345669   0.172372902915   0.172171084984   0.171942409765   0.171688582613   
      0.171411478241   0.171113121209   0.170795665372   0.170461372591   0.170112591085   
      0.169751733743   0.169381256725   0.169003638647   0.168621360627   0.168236887416   
      0.167852649825   0.167471028585   0.167094339763   0.166724821789   0.166364624128   
      0.166015797567   0.165680286086   0.165359920213   0.165056411765   0.164771349849   
      0.164506197971   0.164262292112   0.164040839618   0.163842918729   0.163669478625   
      0.163521339822   0.163399194805   0.163303608766   0.163235020356   0.163193742355   
      0.160281380227   0.160294724454   0.160334697018   0.160401117449   0.16049368458   
      0.160611976002   0.160755447372   0.160923431629   0.16111513821   0.161329652354   
      0.161565934626   0.161822820761   0.162099021993   0.162393126001   0.162703598623   
      0.163028786498   0.163366920779   0.163716122062   0.164074406655   0.164439694299   
      0.164809817424   0.165182531999   0.165555529983   0.165926453387   0.166292909861   
      0.16665248972   0.167002784263   0.167341405198   0.16766600494   0.167974297532   
      0.168264079883   0.168533253011   0.168779842961   0.169002021049   0.169198123091   
      0.16936666729   0.169506370451   0.169616162246   0.169695197262   0.169742864612   
      0.169758794928   0.169742864612   0.169695197262   0.169616162246   0.169506370451   
      0.16936666729   0.169198123091   0.169002021049   0.168779842961   0.168533253011   
      0.168264079883   0.167974297532   0.16766600494   0.167341405198   0.167002784263   
      0.16665248972   0.166292909861   0.165926453387   0.165555529983   0.165182531999   
      0.164809817424   0.164439694299   0.164074406655   0.163716122062   0.163366920779   
      0.163028786498   0.162703598623   0.162393126001   0.162099021993   0.161822820761   
      0.161565934626   0.161329652354   0.16111513821   0.160923431629   0.160755447372   
      0.160611976002   0.16049368458   0.160401117449   0.160334697018   0.160294724454   
      0.15451331514   0.154525766103   0.154563063481   0.154625040628   0.154711419407   
      0.154821809638   0.154955708377   0.155112499099   0.155291450847   0.155491717459   
      0.15571233695   0.155952231197   0.156210206039   0.15648495193   0.156775045295   
      0.157078950739   0.157395024235   0.157721517447   0.158056583304   0.158398282938   
      0.158744594076   0.15909342094   0.159442605697   0.159789941444   0.16013318669   
      0.160470081245   0.160798363389   0.16111578816   0.161420146537   0.161709285283   
      0.161981127166   0.16223369125   0.162465112936   0.162673663418   0.162857768215   
      0.163016024444   0.163147216524   0.163250330008   0.163324563292   0.163369336963   
      0.163384300609   0.163369336963   0.163324563292   0.163250330008   0.163147216524   
      0.163016024444   0.162857768215   0.162673663418   0.162465112936   0.16223369125   
      0.161981127166   0.161709285283   0.161420146537   0.16111578816   0.160798363389   
      0.160470081245   0.16013318669   0.159789941444   0.159442605697   0.15909342094   
      0.158744594076   0.158398282938   0.158056583304   0.157721517447   0.157395024235   
      0.157078950739   0.156775045295   0.15648495193   0.156210206039   0.155952231197   
      0.15571233695   0.155491717459   0.155291450847   0.155112499099   0.154955708377   
      0.154821809638   0.154711419407   0.154625040628   0.154563063481   0.154525766103   
      0.146019685984   0.146030769642   0.146063971842   0.146119146134   0.146196048057   
      0.146294334592   0.146413563447   0.146553192232   0.14671257759   0.146890974355   
      0.147087534843   0.147301308369   0.147531241117   0.147776176477   0.148034855991   
      0.14830592102   0.148587915293   0.148879288441   0.149178400651   0.149483528542   
      0.149792872356   0.150104564516   0.150416679616   0.150727245826   0.151034257696   
      0.15133569029   0.151629514553   0.151913713754   0.152186300825   0.152445336389   
      0.1526889472   0.152915344735   0.153122843627   0.15330987962   0.153475026737   
      0.153617013324   0.153734736678   0.153827275969   0.153893903186   0.153934091904   
      0.153947523671   0.153934091904   0.153893903186   0.153827275969   0.153734736678   
      0.153617013324   0.153475026737   0.15330987962   0.153122843627   0.152915344735   
      0.1526889472   0.152445336389   0.152186300825   0.151913713754   0.151629514553   
      0.15133569029   0.151034257696   0.150727245826   0.150416679616   0.150104564516   
      0.149792872356   0.149483528542   0.149178400651   0.148879288441   0.148587915293   
      0.14830592102   0.148034855991   0.147776176477   0.147531241117   0.147301308369   
      0.147087534843   0.146890974355   0.14671257759   0.146553192232   0.146413563447   
      0.146294334592   0.146196048057   0.146119146134   0.146063971842   0.146030769642   
      0.135196166339   0.135205447463   0.135233250503   0.135279454353   0.135343856828   
      0.135426174165   0.135526040375   0.135643006479   0.135776539689   0.135926022592   
      0.136090752428   0.136269940531   0.136462712047   0.136668106022   0.136885075971   
      0.137112491053   0.137349137945   0.137593723552   0.137844878639   0.138101162499   
      0.138361068727   0.138623032172   0.138885437108   0.139146626648   0.139404913374   
      0.139658591153   0.13990594805   0.140145280224   0.140374906665   0.140593184573   
      0.140798525175   0.140989409732   0.14116440548   0.141322181206   0.141461522197   
      0.141581344259   0.141680706519   0.141758822776   0.141815071128   0.141849001695   
      0.141860342259   0.141849001695   0.141815071128   0.141758822776   0.141680706519   
      0.141581344259   0.141461522197   0.141322181206   0.14116440548   0.140989409732   
      0.140798525175   0.140593184573   0.140374906665   0.140145280224   0.13990594805   
      0.139658591153   0.139404913374   0.139146626648   0.138885437108   0.138623032172   
      0.138361068727   0.138101162499   0.137844878639   0.137593723552   0.137349137945   
      0.137112491053   0.136885075971   0.136668106022   0.136462712047   0.136269940531   
      0.136090752428   0.135926022592   0.135776539689   0.135643006479   0.135526040375   