<?xml version="1.0"?>
<VTKFile type="ImageData" version="0.1" byte_order="LittleEndian">
  <ImageData WholeExtent="0 79 0 19 0 19" Origin="0 0 0" Spacing="1 1 1">
  <Piece Extent="0 79 0 19 0 19">
    <PointData Scalars="density">
       <DataArray type="Float32" Name="reddensity" NumberOfComponents="1" format="ascii">
      0   0   0   0   0   
      0   0   0   0   0   
      0   0   0   0   0   
      0   0   0   0   0   
      0   0   0   0   0   
      0   0   0   0   0   
      0   0   0   0   0   
      0   0   0   0   0   
      0   0   0   0   0   
      0   0   0   0   0   
      0   0   0   0   0   
      0   0   0   0   0   
      0   0   0   0   0   
      0   0   0   0   0   
      0   0   0   0   0   
      0   0   0   0   0   
      0   0   0   0   0   
      0   0   0   0   0   
      0   0   0   0   0   
      0   0   0   0   0   
      0   0   0   0   0   
      0   0   0   0   0   
      0   0   0   0   0   
      0   0   0   0   0   
      0   0   0   0   0   
      0   0   0   0   0   
      0   0   0   0   0   
      0   0   0   0   0   
      0   0   0   0   0   
      0   0   0   0   0   
      0   0   0   0   0   
      0   0   0   0   0   
      0   0   0   0   0   
      0   0   0   0   0   
      0   0   0   0   0   
      0   0   0   0   0   
      0   0   0   0   0   
      0   0   0   0   0   
      0   0   0   0   0   
      0   0   0   0   0   
      0   0   0   0   0   
      0   0   0   0   0   
      0   0   0   0   0   
      0   0   0   0   0   
      0   0   0   0   0   
      0   0   0   0   0   
      0   0   0   0   0   
      0   0   0   0   0   
      0   0   0   0   0   
      0   0   0   0   0   
      0   0   0   0   0   
      0   0   0   0   0   
      0   0   0   0   0   
      0   0   0   0   0   
      0   0   0   0   0   
      0   0   0   0   0   
      0   0   0   0   0   
      0   0   0   0   0   
      0   0   0   0   0   
      0   0   0   0   0   
      0   0   0   0   0   
      0   0   0   0   0   
      0   0   0   0   0   
      0   0   0   0   0   
      0   0   0   0   0   
      0   0   0   0   0   
      0   0   0   0   0   
      0   0   0   0   0   
      0   0   0   0   0   
      0   0   0   0   0   
      0   0   0   0   0   
      0   0   0   0   0   
      0   0   0   0   0   
      0   0   0   0   0   
      0   0   0   0   0   
      0   0   0   0   0   
      0   0   0   0   0   
      0   0   0   0   0   
      0   0   0   0   0   
      0   0   0   0   0   
      0   0   0   0   0   
      0   0   0   0   0   
      0   0   0   0   0   
      0   0   0   0   0   
      0   0   0   0   0   
      0   0   0   0   0   
      0   0   0   0   0   
      0   0   0   0   0   
      0   0   0   0   0   
      0   0   0   0   0   
      0   0   0   0   0   
      0   0   0   0   0   
      0   0   0   0   0   
      0   0   0   0   0   
      0   0   0   0   0   
      0   0   0   0   0   
      0   0   0   0   0   
      0   0   0   0   0   
      0   0   0   0   0   
      0   0   0   0   0   
      0   0   0   0   0   
      0   0   0   0   0   
      0   0   0   0   0   
      0   0   0   0   0   
      0   0   0   0   0   
      0   0   0   0   0   
      0   0   0   0   0   
      0   0   0   0   0   
      0   0   0   0   0   
      0   0   0   0   0   
      0   0   0   0   0   
      0   0   0   0   0   
      0   0   0   0   0   
      0   0   0   0   0   
      0   0   0   0   0   
      0   0   0   0   0   
      0   0   0   0   0   
      0   0   0   0   0   
      0   0   0   0   0   
      0   0   0   0   0   
      0   0   0   0   0   
      0   0   0   0   0   
      0   0   0   0   0   
      0   0   0   0   0   
      0   0   0   0   0   
      0   0   0   0   0   
      0   0   0   0   0   
      0   0   0   0   0   
      0   0   0   0   0   
      0   0   0   0   0   
      0   0   0   0   0   
      0   0   0   0   0   
      0   0   0   0   0   
      0   0   0   0   0   
      0   0   0   0   0   
      0   0   0   0   0   
      0   0   0   0   0   
      0   0   0   0   0   
      0   0   0   0   0   
      0   0   0   0   0   
      0   0   0   0   0   
      0   0   0   0   0   
      0   0   0   0   0   
      0   0   0   0   0   
      0   0   0   0   0   
      0   0   0   0   0   
      0   0   0   0   0   
      0   0   0   0   0   
      0   0   0   0   0   
      0   0   0   0   0   
      0   0   0   0   0   
      0   0   0   0   0   
      0   0   0   0   0   
      0   0   0   0   0   
      0   0   0   0   0   
      0   0   0   0   0   
      0   0   0   0   0   
      0   0   0   0   0   
      0   0   0   0   0   
      0   0   0   0   0   
      0   0   0   0   0   
      0   0   0   0   0   
      0   0   0   0   0   
      0   0   0   0   0   
      0   0   0   0   0   
      0   0   0   0   0   
      0   0   0   0   0   
      0   0   0   0   0   
      0   0   0   0   0   
      0   0   0   0   0   
      0   0   0   0   0   
      0   0   0   0   0   
      0   0   0   0   0   
      0   0   0   0   0   
      0   0   0   0   0   
      0   0   0   0   0   
      0   0   0   0   0   
      0   0   0   0   0   
      0   0   0   0   0   
      0   0   0   0   0   
      0   0   0   0   0   
      0   0   0   0   0   
      0   0   0   0   0   
      0   0   0   0   0   
      0   0   0   0   0   
      0   0   0   0   0   
      0   0   0   0   0   
      0   0   0   0   0   
      0   0   0   0   0   
      0   0   0   0   0   
      0   0   0   0   0   
      0   0   0   0   0   
      0   0   0   0   0   
      0   0   0   0   0   
      0   0   0   0   0   
      0   0   0   0   0   
      0   0   0   0   0   
      0   0   0   0   0   
      0   0   0   0   0   
      0   0   0   0   0   
      0   0   0   0   0   
      0   0   0   0   0   
      0   0   0   0   0   
      0   0   0   0   0   
      0   0   0   0   0   
      0   0   0   0   0   
      0   0   0   0   0   
      0   0   0   0   0   
      0   0   0   0   0   
      0   0   0   0   0   
      0   0   0   0   0   
      0   0   0   0   0   
      0   0   0   0   0   
      0   0   0   0   0   
      0   0   0   0   0   
      0   0   0   0   0   
      0   0   0   0   0   
      0   0   0   0   0   
      0   0   0   0   0   
      0   0   0   0   0   
      0   0   0   0   0   
      0   0   0   0   0   
      0   0   0   0   0   
      0   0   0   0   0   
      0   0   0   0   0   
      0   0   0   0   0   
      0   0   0   0   0   
      0   0   0   0   0   
      0   0   0   0   0   
      0   0   0   0   0   
      0   0   0   0   0   
      0   0   0   0   0   
      0   0   0   0   0   
      0   0   0   0   0   
      0   0   0   0   0   
      0   0   0   0   0   
      0   0   0   0   0   
      0   0   0   0   0   
      0   0   0   0   0   
      0   0   0   0   0   
      0   0   0   0   0   
      0   0   0   0   0   
      0   0   0   0   0   
      0   0   0   0   0   
      0   0   0   0   0   
      0   0   0   0   0   
      0   0   0   0   0   
      0   0   0   0   0   
      0   0   0   0   0   
      0   0   0   0   0   
      0   0   0   0   0   
      0   0   0   0   0   
      0   0   0   0   0   
      0   0   0   0   0   
      0   0   0   0   0   
      0   0   0   0   0   
      0   0   0   0   0   
      0   0   0   0   0   
      0   0   0   0   0   
      0   0   0   0   0   
      0   0   0   0   0   
      0   0   0   0   0   
      0   0   0   0   0   
      0   0   0   0   0   
      0   0   0   0   0   
      0   0   0   0   0   
      0   0   0   0   0   
      0   0   0   0   0   
      0   0   0   0   0   
      0   0   0   0   0   
      0   0   0   0   0   
      0   0   0   0   0   
      0   0   0   0   0   
      0   0   0   0   0   
      0   0   0   0   0   
      0   0   0   0   0   
      0   0   0   0   0   
      0   0   0   0   0   
      0   0   0   0   0   
      0   0   0   0   0   
      0   0   0   0   0   
      0   0   0   0   0   
      0   0   0   0   0   
      0   0   0   0   0   
      0   0   0   0   0   
      0   0   0   0   0   
      0   0   0   0   0   
      0   0   0   0   0   
      0   0   0   0   0   
      0   0   0   0   0   
      0   0   0   0   0   
      0   0   0   0   0   
      0   0   0   0   0   
      0   0   0   0   0   
      0   0   0   0   0   
      0   0   0   0   0   
      0   0   0   0   0   
      0   0   0   0   0   
      0   0   0   0   0   
      0   0   0   0   0   
      0   0   0   0   0   
      0   0   0   0   0   
      0   0   0   0   0   
      0   0   0   0   0   
      0   0   0   0   0   
      0   0   0   0   0   
      0   0   0   0   0   
      0   0   0   0   0   
      0   0   0   0   0   
      0   0   0   0   0   
      0   0   0   0   0   
      0   0   0   0   0   
      0   0   0   0   0   
      0   0   0   0   0   
      0   0   0   0   0   
      0   0   0   0   0   
      0   0   0   0   0   
      0   0   0   0   0   
      0   0   0   0   0   
      0   0   0   0   0   
      0   0   0   0   0   
      0   0   0   0   0   
      0   0   0   0   0   
      0   0   0   0   0   
      0   0   0   0   0   
      0   0   0   0   0   
      0   0   0   0   0   
      0   0   0   0   0   
      0   0   0   0   0   
      0   0   0   0   0   
      0   0   0   0   0   
      0   0   0   0   0   
      0   0   0   0   0   
      0   0   0   0   0   
      0   0   0   0   0   
      0   0   0   0   0   
      0.0822910806263   0.0822987691744   0.0823218406859   0.0823603124451   0.0824142121829   
      0.0824835764067   0.0825684479465   0.0826688726051   0.0827848947653   0.0829165517812   
      0.0830638669533   0.0832268408722   0.0834054409096   0.0835995886459   0.0838091450603   
      0.0840338933664   0.0842735194802   0.0845275902348   0.0847955296415   0.0850765937055   
      0.0853698445597   0.0856741249476   0.0859880343588   0.0863099083697   0.0866378029371   
      0.0869694855044   0.0873024347734   0.0876338508498   0.0879606771662   0.0882796351222   
      0.0885872717712   0.0888800201588   0.0891542711164   0.089406454507   0.0896331271583   
      0.0898310640783   0.0899973490843   0.0901294607329   0.090225349459   0.0902835021084   
      0.0903029905868   0.0902835021084   0.090225349459   0.0901294607329   0.0899973490843   
      0.0898310640783   0.0896331271583   0.089406454507   0.0891542711164   0.0888800201588   
      0.0885872717712   0.0882796351222   0.0879606771662   0.0876338508498   0.0873024347734   
      0.0869694855044   0.0866378029371   0.0863099083697   0.0859880343588   0.0856741249476   
      0.0853698445597   0.0850765937055   0.0847955296415   0.0845275902348   0.0842735194802   
      0.0840338933664   0.0838091450603   0.0835995886459   0.0834054409096   0.0832268408722   
      0.0830638669533   0.0829165517812   0.0827848947653   0.0826688726051   0.0825684479465   
      0.0824835764067   0.0824142121829   0.0823603124451   0.0823218406859   0.0822987691744   
      0.0902476621508   0.0902585952356   0.0902914053089   0.0903461243432   0.0904228039874   
      0.0905215130228   0.090642333632   0.0907853563087   0.090950673194   0.0911383695798   
      0.0913485132855   0.0915811415919   0.091836245409   0.0921137503741   0.0924134946326   
      0.0927352031467   0.0930784585268   0.0934426685863   0.0938270310829   0.0942304964362   
      0.0946517295775   0.0950890724881   0.0955405093727   0.0960036367749   0.0964756412044   
      0.09695328699   0.0974329170275   0.0979104688448   0.0983815079219   0.0988412794954   
      0.0992847791634   0.0997068415392   0.10010224506   0.100465829913   0.100792625004   
      0.101077979034   0.101317690165   0.101508128493   0.10164634562   0.101730166062   
      0.101758256018   0.101730166062   0.10164634562   0.101508128493   0.101317690165   
      0.101077979034   0.100792625004   0.100465829913   0.10010224506   0.0997068415392   
      0.0992847791634   0.0988412794954   0.0983815079219   0.0979104688448   0.0974329170275   
      0.09695328699   0.0964756412044   0.0960036367749   0.0955405093727   0.0950890724881   
      0.0946517295775   0.0942304964362   0.0938270310829   0.0934426685863   0.0930784585268   
      0.0927352031467   0.0924134946326   0.0921137503741   0.091836245409   0.0915811415919   
      0.0913485132855   0.0911383695798   0.090950673194   0.0907853563087   0.090642333632   
      0.0905215130228   0.0904228039874   0.0903461243432   0.0902914053089   0.0902585952356   
      0.103657876824   0.103675588902   0.103728746761   0.103817414421   0.103941695684   
      0.104101729644   0.104297684094   0.104529746562   0.104798112578   0.10510297075   
      0.105444484147   0.105822767459   0.106237859403   0.10668968989   0.107178041576   
      0.107702505606   0.108262431606   0.108856872396   0.109484524306   0.110143664594   
      0.110832088056   0.111547045592   0.11228518813   0.113042519834   0.113814364894   
      0.11459535231   0.115379422867   0.116159861926   0.116929360717   0.117680107519   
      0.118403908521   0.119092336446   0.119736903209   0.120329251222   0.120861356523   
      0.121325735868   0.121715649261   0.122025289345   0.122249949363   0.122386162294   
      0.122431804936   0.122386162294   0.122249949363   0.122025289345   0.121715649261   
      0.121325735868   0.120861356523   0.120329251222   0.119736903209   0.119092336446   
      0.118403908521   0.117680107519   0.116929360717   0.116159861926   0.115379422867   
      0.11459535231   0.113814364894   0.113042519834   0.11228518813   0.111547045592   
      0.110832088056   0.110143664594   0.109484524306   0.108856872396   0.108262431606   
      0.107702505606   0.107178041576   0.10668968989   0.106237859403   0.105822767459   
      0.105444484147   0.10510297075   0.104798112578   0.104529746562   0.104297684094   
      0.104101729644   0.103941695684   0.103817414421   0.103728746761   0.103675588902   
      0.114466049998   0.114491094612   0.114566261789   0.114691650216   0.114867419877   
      0.115093785103   0.115371004392   0.115699366569   0.116079172742   0.116510713405   
      0.116994239977   0.117529930032   0.118117845484   0.118757883123   0.119449717044   
      0.120192732878   0.120985954137   0.121827961608   0.122716807449   0.123649926487   
      0.124624048139   0.125635113285   0.126678201241   0.127747472578   0.128836133813   
      0.129936429857   0.131039669448   0.132136287602   0.133215947482   0.134267681987   
      0.135280073109   0.13624146475   0.13714020257   0.137964892629   0.138704669314   
      0.139349462355   0.139890252657   0.140319307124   0.140630383643   0.140818898613   
      0.140882051016   0.140818898613   0.140630383643   0.140319307124   0.139890252657   
      0.139349462355   0.138704669314   0.137964892629   0.13714020257   0.13624146475   
      0.135280073109   0.134267681987   0.133215947482   0.132136287602   0.131039669448   
      0.129936429857   0.128836133813   0.127747472578   0.126678201241   0.125635113285   
      0.124624048139   0.123649926487   0.122716807449   0.121827961608   0.120985954137   
      0.120192732878   0.119449717044   0.118757883123   0.118117845484   0.117529930032   
      0.116994239977   0.116510713405   0.116079172742   0.115699366569   0.115371004392   
      0.115093785103   0.114867419877   0.114691650216   0.114566261789   0.114491094612   
      0.124503730274   0.12453617101   0.124633537315   0.124795959588   0.125023648781   
      0.125316886522   0.12567601069   0.126101395846   0.1265934278   0.12715247146   
      0.127778831036   0.12847270167   0.129234111635   0.130062854402   0.13095841026   
      0.131919857615   0.13294577481   0.134034134169   0.135182191001   0.13638637146   
      0.137642164335   0.13894402294   0.140285284133   0.141658111961   0.143053473356   
      0.144461152588   0.145869809756   0.147267086552   0.148639759944   0.149973941558   
      0.151255317686   0.152469422234   0.153601932913   0.154638979656   0.155567453784   
      0.156375306725   0.157051828076   0.157587894176   0.157976180059   0.158211329304   
      0.158290077861   0.158211329304   0.157976180059   0.157587894176   0.157051828076   
      0.156375306725   0.155567453784   0.154638979656   0.153601932913   0.152469422234   
      0.151255317686   0.149973941558   0.148639759944   0.147267086552   0.145869809756   
      0.144461152588   0.143053473356   0.141658111961   0.140285284133   0.13894402294   
      0.137642164335   0.13638637146   0.135182191001   0.134034134169   0.13294577481   
      0.131919857615   0.13095841026   0.130062854402   0.129234111635   0.12847270167   
      0.127778831036   0.12715247146   0.1265934278   0.126101395846   0.12567601069   
      0.125316886522   0.125023648781   0.124795959588   0.124633537315   0.12453617101   
      0.13316412924   0.133203075695   0.133319966818   0.133514955408   0.133788287749   
      0.134140290666   0.134571352651   0.135081898335   0.135672355422   0.136343113059   
      0.137094470572   0.137926575508   0.138839350099   0.139832405529   0.14090494393   
      0.142055648707   0.14328256476   0.144582971331   0.145953251511   0.147388763904   
      0.148883723249   0.150431097977   0.152022533361   0.153648309036   0.155297338934   
      0.156957220188   0.15861433513   0.160254007509   0.161860710571   0.163418321211   
      0.164910411286   0.166320564812   0.167632708423   0.168831442185   0.169902358664   
      0.170832339782   0.171609823189   0.172225032224   0.172670165808   0.172939546395   
      0.173029725428   0.172939546395   0.172670165808   0.172225032224   0.171609823189   
      0.170832339782   0.169902358664   0.168831442185   0.167632708423   0.166320564812   
      0.164910411286   0.163418321211   0.161860710571   0.160254007509   0.15861433513   
      0.156957220188   0.155297338934   0.153648309036   0.152022533361   0.150431097977   
      0.148883723249   0.147388763904   0.145953251511   0.144582971331   0.14328256476   
      0.142055648707   0.14090494393   0.139832405529   0.138839350099   0.137926575508   
      0.137094470572   0.136343113059   0.135672355422   0.135081898335   0.134571352651   
      0.134140290666   0.133788287749   0.133514955408   0.133319966818   0.133203075695   
      0.13998099297   0.140025025978   0.140157181073   0.140377623435   0.140686618131   
      0.141084514335   0.141571722351   0.142148682642   0.142815825823   0.143573522511   
      0.144422021852   0.145361377645   0.14639136122   0.147511360658   0.148720266617   
      0.150016345947   0.151397105486   0.152859149821   0.154398038381   0.156008148818   
      0.15768255504   0.159412929303   0.161189478181   0.163000921787   0.16483452421   
      0.166676180711   0.168510563918   0.170321327357   0.172091360608   0.173803086599   
      0.175438788623   0.176980952872   0.178412611891   0.17971767531   0.180881236356   
      0.181889845508   0.182731745886   0.183397068006   0.183877984052   0.184168823564   
      0.184266153245   0.184168823564   0.183877984052   0.183397068006   0.182731745886   
      0.181889845508   0.180881236356   0.17971767531   0.178412611891   0.176980952872   
      0.175438788623   0.173803086599   0.172091360608   0.170321327357   0.168510563918   
      0.166676180711   0.16483452421   0.163000921787   0.161189478181   0.159412929303   
      0.15768255504   0.156008148818   0.154398038381   0.152859149821   0.151397105486   
      0.150016345947   0.148720266617   0.147511360658   0.14639136122   0.145361377645   
      0.144422021852   0.143573522511   0.142815825823   0.142148682642   0.141571722351   
      0.141084514335   0.140686618131   0.140377623435   0.140157181073   0.140025025978   
      0.144630794315   0.144678251213   0.144820679772   0.145058250127   0.145391234174   
      0.145819987591   0.146344923726   0.146966478446   0.147685064873   0.14850101681   
      0.149414519654   0.150425527738   0.151533667349   0.152738125225   0.154037523144   
      0.155429780305   0.156911966596   0.158480151428   0.160129254527   0.161852906777   
      0.16364333056   0.165491249978   0.167385841358   0.169314733567   0.171264065598   
      0.17321860574   0.175161932698   0.177076674495   0.178944796661   0.180747927368   
      0.18246770459   0.184086129213   0.185585908533   0.186950776564   0.188165780728   
      0.189217528257   0.190094389491   0.190786658682   0.191286675482   0.191588911834   
      0.191690029375   0.191588911834   0.191286675482   0.190786658682   0.190094389491   
      0.189217528257   0.188165780728   0.186950776564   0.185585908533   0.184086129213   
      0.18246770459   0.180747927368   0.178944796661   0.177076674495   0.175161932698   
      0.17321860574   0.171264065598   0.169314733567   0.167385841358   0.165491249978   
      0.16364333056   0.161852906777   0.160129254527   0.158480151428   0.156911966596   
      0.155429780305   0.154037523144   0.152738125225   0.151533667349   0.150425527738   
      0.149414519654   0.14850101681   0.147685064873   0.146966478446   0.146344923726   
      0.145819987591   0.145391234174   0.145058250127   0.144820679772   0.144678251213   
      0.146975373047   0.147024538343   0.147172092586   0.147418207142   0.147763155182   
      0.148207292504   0.148751029712   0.149394794814   0.150138985112   0.15098390719   
      0.151929703773   0.152976266433   0.154123133455   0.155369372803   0.156713451023   
      0.158153090072   0.159685115595   0.161305301799   0.163008219917   0.164787098915   
      0.166633708481   0.168538275107   0.170489441912   0.172474281694   0.174478370223   
      0.176485923343   0.178479997027   0.180442744847   0.182355722756   0.184200227374   
      0.185957651568   0.18760984042   0.189139431694   0.190530167447   0.191767167154   
      0.19283715686   0.19372865307   0.194432103595   0.194939990163   0.195246898967   
      0.195349565486   0.195246898967   0.194939990163   0.194432103595   0.19372865307   
      0.19283715686   0.191767167154   0.190530167447   0.189139431694   0.18760984042   
      0.185957651568   0.184200227374   0.182355722756   0.180442744847   0.178479997027   
      0.176485923343   0.174478370223   0.172474281694   0.170489441912   0.168538275107   
      0.166633708481   0.164787098915   0.163008219917   0.161305301799   0.159685115595   
      0.158153090072   0.156713451023   0.155369372803   0.154123133455   0.152976266433   
      0.151929703773   0.15098390719   0.150138985112   0.149394794814   0.148751029712   
      0.148207292504   0.147763155182   0.147418207142   0.147172092586   0.147024538343   
      0.146975373047   0.147024538343   0.147172092586   0.147418207142   0.147763155182   
      0.148207292504   0.148751029712   0.149394794814   0.150138985112   0.15098390719   
      0.151929703773   0.152976266433   0.154123133455   0.155369372803   0.156713451023   
      0.158153090072   0.159685115595   0.161305301799   0.163008219917   0.164787098915   
      0.166633708481   0.168538275107   0.170489441912   0.172474281694   0.174478370223   
      0.176485923343   0.178479997027   0.180442744847   0.182355722756   0.184200227374   
      0.185957651568   0.18760984042   0.189139431694   0.190530167447   0.191767167154   
      0.19283715686   0.19372865307   0.194432103595   0.194939990163   0.195246898967   
      0.195349565486   0.195246898967   0.194939990163   0.194432103595   0.19372865307   
      0.19283715686   0.191767167154   0.190530167447   0.189139431694   0.18760984042   
      0.185957651568   0.184200227374   0.182355722756   0.180442744847   0.178479997027   
      0.176485923343   0.174478370223   0.172474281694   0.170489441912   0.168538275107   
      0.166633708481   0.164787098915   0.163008219917   0.161305301799   0.159685115595   
      0.158153090072   0.156713451023   0.155369372803   0.154123133455   0.152976266433   
      0.151929703773   0.15098390719   0.150138985112   0.149394794814   0.148751029712   
      0.148207292504   0.147763155182   0.147418207142   0.147172092586   0.147024538343   
      0.144630794315   0.144678251213   0.144820679772   0.145058250127   0.145391234174   
      0.145819987591   0.146344923726   0.146966478446   0.147685064873   0.14850101681   
      0.149414519654   0.150425527738   0.151533667349   0.152738125225   0.154037523144   
      0.155429780305   0.156911966596   0.158480151428   0.160129254527   0.161852906777   
      0.16364333056   0.165491249978   0.167385841358   0.169314733567   0.171264065598   
      0.17321860574   0.175161932698   0.177076674495   0.178944796661   0.180747927368   
      0.18246770459   0.184086129213   0.185585908533   0.186950776564   0.188165780728   
      0.189217528257   0.190094389491   0.190786658682   0.191286675482   0.191588911834   
      0.191690029375   0.191588911834   0.191286675482   0.190786658682   0.190094389491   
      0.189217528257   0.188165780728   0.186950776564   0.185585908533   0.184086129213   
      0.18246770459   0.180747927368   0.178944796661   0.177076674495   0.175161932698   
      0.17321860574   0.171264065598   0.169314733567   0.167385841358   0.165491249978   
      0.16364333056   0.161852906777   0.160129254527   0.158480151428   0.156911966596   
      0.155429780305   0.154037523144   0.152738125225   0.151533667349   0.150425527738   
      0.149414519654   0.14850101681   0.147685064873   0.146966478446   0.146344923726   
      0.145819987591   0.145391234174   0.145058250127   0.144820679772   0.144678251213   
      0.13998099297   0.140025025978   0.140157181073   0.140377623435   0.140686618131   
      0.141084514335   0.141571722351   0.142148682642   0.142815825823   0.143573522511   
      0.144422021852   0.145361377645   0.14639136122   0.147511360658   0.148720266617   
      0.150016345947   0.151397105486   0.152859149821   0.154398038381   0.156008148818   
      0.15768255504   0.159412929303   0.161189478181   0.163000921787   0.16483452421   
      0.166676180711   0.168510563918   0.170321327357   0.172091360608   0.173803086599   
      0.175438788623   0.176980952872   0.178412611891   0.17971767531   0.180881236356   
      0.181889845508   0.182731745886   0.183397068006   0.183877984052   0.184168823564   
      0.184266153245   0.184168823564   0.183877984052   0.183397068006   0.182731745886   
      0.181889845508   0.180881236356   0.17971767531   0.178412611891   0.176980952872   
      0.175438788623   0.173803086599   0.172091360608   0.170321327357   0.168510563918   
      0.166676180711   0.16483452421   0.163000921787   0.161189478181   0.159412929303   
      0.15768255504   0.156008148818   0.154398038381   0.152859149821   0.151397105486   
      0.150016345947   0.148720266617   0.147511360658   0.14639136122   0.145361377645   
      0.144422021852   0.143573522511   0.142815825823   0.142148682642   0.141571722351   
      0.141084514335   0.140686618131   0.140377623435   0.140157181073   0.140025025978   
      0.13316412924   0.133203075695   0.133319966818   0.133514955408   0.133788287749   
      0.134140290666   0.134571352651   0.135081898335   0.135672355422   0.136343113059   
      0.137094470572   0.137926575508   0.138839350099   0.139832405529   0.14090494393   
      0.142055648707   0.14328256476   0.144582971331   0.145953251511   0.147388763904   
      0.148883723249   0.150431097977   0.152022533361   0.153648309036   0.155297338934   
      0.156957220188   0.15861433513   0.160254007509   0.161860710571   0.163418321211   
      0.164910411286   0.166320564812   0.167632708423   0.168831442185   0.169902358664   
      0.170832339782   0.171609823189   0.172225032224   0.172670165808   0.172939546395   
      0.173029725428   0.172939546395   0.172670165808   0.172225032224   0.171609823189   
      0.170832339782   0.169902358664   0.168831442185   0.167632708423   0.166320564812   
      0.164910411286   0.163418321211   0.161860710571   0.160254007509   0.15861433513   
      0.156957220188   0.155297338934   0.153648309036   0.152022533361   0.150431097977   
      0.148883723249   0.147388763904   0.145953251511   0.144582971331   0.14328256476   
      0.142055648707   0.14090494393   0.139832405529   0.138839350099   0.137926575508   
      0.137094470572   0.136343113059   0.135672355422   0.135081898335   0.134571352651   
      0.134140290666   0.133788287749   0.133514955408   0.133319966818   0.133203075695   
      0.124503730274   0.12453617101   0.124633537315   0.124795959588   0.125023648781   
      0.125316886522   0.12567601069   0.126101395846   0.1265934278   0.12715247146   
      0.127778831036   0.12847270167   0.129234111635   0.130062854402   0.13095841026   
      0.131919857615   0.13294577481   0.134034134169   0.135182191001   0.13638637146   
      0.137642164335   0.13894402294   0.140285284133   0.141658111961   0.143053473356   
      0.144461152588   0.145869809756   0.147267086552   0.148639759944   0.149973941558   
      0.151255317686   0.152469422234   0.153601932913   0.154638979656   0.155567453784   
      0.156375306725   0.157051828076   0.157587894176   0.157976180059   0.158211329304   
      0.158290077861   0.158211329304   0.157976180059   0.157587894176   0.157051828076   
      0.156375306725   0.155567453784   0.154638979656   0.153601932913   0.152469422234   
      0.151255317686   0.149973941558   0.148639759944   0.147267086552   0.145869809756   
      0.144461152588   0.143053473356   0.141658111961   0.140285284133   0.13894402294   
      0.137642164335   0.13638637146   0.135182191001   0.134034134169   0.13294577481   
      0.131919857615   0.13095841026   0.130062854402   0.129234111635   0.12847270167   
      0.127778831036   0.12715247146   0.1265934278   0.126101395846   0.12567601069   