<?xml version="1.0"?>
<VTKFile type="ImageData" version="0.1" byte_order="LittleEndian">
  <ImageData WholeExtent="0 79 0 19 0 19" Origin="0 0 0" Spacing="1 1 1">
  <Piece Extent="0 79 0 19 0 19">
    <PointData Scalars="density">
       <DataArray type="Float32" Name="reddensity" NumberOfComponents="1" format="ascii">
      0   0   0   0   0   
      0   0   0   0   0   
      0   0   0   0   0   
      0   0   0   0   0   
      0   0   0   0   0   
      0   0   0   0   0   
      0   0   0   0   0   
      0   0   0   0   0   
      0   0   0   0   0   
      0   0   0   0   0   
      0   0   0   0   0   
      0   0   0   0   0   
      0   0   0   0   0   
      0   0   0   0   0   
      0   0   0   0   0   
      0   0   0   0   0   
      0   0   0   0   0   
      0   0   0   0   0   
      0   0   0   0   0   
      0   0   0   0   0   
      0   0   0   0   0   
      0   0   0   0   0   
      0   0   0   0   0   
      0   0   0   0   0   
      0   0   0   0   0   
      0   0   0   0   0   
      0   0   0   0   0   
      0   0   0   0   0   
      0   0   0   0   0   
      0   0   0   0   0   
      0   0   0   0   0   
      0   0   0   0   0   
      0   0   0   0   0   
      0   0   0   0   0   
      0   0   0   0   0   
      0   0   0   0   0   
      0   0   0   0   0   
      0   0   0   0   0   
      0   0   0   0   0   
      0   0   0   0   0   
      0   0   0   0   0   
      0   0   0   0   0   
      0   0   0   0   0   
      0   0   0   0   0   
      0   0   0   0   0   
      0   0   0   0   0   
      0   0   0   0   0   
      0   0   0   0   0   
      0   0   0   0   0   
      0   0   0   0   0   
      0   0   0   0   0   
      0   0   0   0   0   
      0   0   0   0   0   
      0   0   0   0   0   
      0   0   0   0   0   
      0   0   0   0   0   
      0   0   0   0   0   
      0   0   0   0   0   
      0   0   0   0   0   
      0   0   0   0   0   
      0   0   0   0   0   
      0   0   0   0   0   
      0   0   0   0   0   
      0   0   0   0   0   
      0   0   0   0   0   
      0   0   0   0   0   
      0   0   0   0   0   
      0   0   0   0   0   
      0   0   0   0   0   
      0   0   0   0   0   
      0   0   0   0   0   
      0   0   0   0   0   
      0   0   0   0   0   
      0   0   0   0   0   
      0   0   0   0   0   
      0   0   0   0   0   
      0   0   0   0   0   
      0   0   0   0   0   
      0   0   0   0   0   
      0   0   0   0   0   
      0   0   0   0   0   
      0   0   0   0   0   
      0   0   0   0   0   
      0   0   0   0   0   
      0   0   0   0   0   
      0   0   0   0   0   
      0   0   0   0   0   
      0   0   0   0   0   
      0   0   0   0   0   
      0   0   0   0   0   
      0   0   0   0   0   
      0   0   0   0   0   
      0   0   0   0   0   
      0   0   0   0   0   
      0   0   0   0   0   
      0   0   0   0   0   
      0   0   0   0   0   
      0   0   0   0   0   
      0   0   0   0   0   
      0   0   0   0   0   
      0   0   0   0   0   
      0   0   0   0   0   
      0   0   0   0   0   
      0   0   0   0   0   
      0   0   0   0   0   
      0   0   0   0   0   
      0   0   0   0   0   
      0   0   0   0   0   
      0   0   0   0   0   
      0   0   0   0   0   
      0   0   0   0   0   
      0   0   0   0   0   
      0   0   0   0   0   
      0   0   0   0   0   
      0   0   0   0   0   
      0   0   0   0   0   
      0   0   0   0   0   
      0   0   0   0   0   
      0   0   0   0   0   
      0   0   0   0   0   
      0   0   0   0   0   
      0   0   0   0   0   
      0   0   0   0   0   
      0   0   0   0   0   
      0   0   0   0   0   
      0   0   0   0   0   
      0   0   0   0   0   
      0   0   0   0   0   
      0   0   0   0   0   
      0   0   0   0   0   
      0   0   0   0   0   
      0   0   0   0   0   
      0   0   0   0   0   
      0   0   0   0   0   
      0   0   0   0   0   
      0   0   0   0   0   
      0   0   0   0   0   
      0   0   0   0   0   
      0   0   0   0   0   
      0   0   0   0   0   
      0   0   0   0   0   
      0   0   0   0   0   
      0   0   0   0   0   
      0   0   0   0   0   
      0   0   0   0   0   
      0   0   0   0   0   
      0   0   0   0   0   
      0   0   0   0   0   
      0   0   0   0   0   
      0   0   0   0   0   
      0   0   0   0   0   
      0   0   0   0   0   
      0   0   0   0   0   
      0   0   0   0   0   
      0   0   0   0   0   
      0   0   0   0   0   
      0   0   0   0   0   
      0   0   0   0   0   
      0   0   0   0   0   
      0   0   0   0   0   
      0   0   0   0   0   
      0   0   0   0   0   
      0   0   0   0   0   
      0   0   0   0   0   
      0   0   0   0   0   
      0   0   0   0   0   
      0   0   0   0   0   
      0   0   0   0   0   
      0   0   0   0   0   
      0   0   0   0   0   
      0   0   0   0   0   
      0   0   0   0   0   
      0   0   0   0   0   
      0   0   0   0   0   
      0   0   0   0   0   
      0   0   0   0   0   
      0   0   0   0   0   
      0   0   0   0   0   
      0   0   0   0   0   
      0   0   0   0   0   
      0   0   0   0   0   
      0   0   0   0   0   
      0   0   0   0   0   
      0   0   0   0   0   
      0   0   0   0   0   
      0   0   0   0   0   
      0   0   0   0   0   
      0   0   0   0   0   
      0   0   0   0   0   
      0   0   0   0   0   
      0   0   0   0   0   
      0   0   0   0   0   
      0   0   0   0   0   
      0   0   0   0   0   
      0   0   0   0   0   
      0   0   0   0   0   
      0   0   0   0   0   
      0   0   0   0   0   
      0   0   0   0   0   
      0   0   0   0   0   
      0   0   0   0   0   
      0   0   0   0   0   
      0   0   0   0   0   
      0   0   0   0   0   
      0   0   0   0   0   
      0   0   0   0   0   
      0   0   0   0   0   
      0   0   0   0   0   
      0   0   0   0   0   
      0   0   0   0   0   
      0   0   0   0   0   
      0   0   0   0   0   
      0   0   0   0   0   
      0   0   0   0   0   
      0   0   0   0   0   
      0   0   0   0   0   
      0   0   0   0   0   
      0   0   0   0   0   
      0   0   0   0   0   
      0   0   0   0   0   
      0   0   0   0   0   
      0   0   0   0   0   
      0   0   0   0   0   
      0   0   0   0   0   
      0   0   0   0   0   
      0   0   0   0   0   
      0   0   0   0   0   
      0   0   0   0   0   
      0   0   0   0   0   
      0   0   0   0   0   
      0   0   0   0   0   
      0   0   0   0   0   
      0   0   0   0   0   
      0   0   0   0   0   
      0   0   0   0   0   
      0   0   0   0   0   
      0   0   0   0   0   
      0   0   0   0   0   
      0   0   0   0   0   
      0   0   0   0   0   
      0   0   0   0   0   
      0   0   0   0   0   
      0   0   0   0   0   
      0   0   0   0   0   
      0   0   0   0   0   
      0   0   0   0   0   
      0   0   0   0   0   
      0   0   0   0   0   
      0   0   0   0   0   
      0   0   0   0   0   
      0   0   0   0   0   
      0   0   0   0   0   
      0   0   0   0   0   
      0   0   0   0   0   
      0   0   0   0   0   
      0   0   0   0   0   
      0   0   0   0   0   
      0   0   0   0   0   
      0   0   0   0   0   
      0   0   0   0   0   
      0   0   0   0   0   
      0   0   0   0   0   
      0   0   0   0   0   
      0   0   0   0   0   
      0   0   0   0   0   
      0   0   0   0   0   
      0   0   0   0   0   
      0   0   0   0   0   
      0   0   0   0   0   
      0   0   0   0   0   
      0   0   0   0   0   
      0   0   0   0   0   
      0   0   0   0   0   
      0   0   0   0   0   
      0   0   0   0   0   
      0   0   0   0   0   
      0   0   0   0   0   
      0   0   0   0   0   
      0   0   0   0   0   
      0   0   0   0   0   
      0   0   0   0   0   
      0   0   0   0   0   
      0   0   0   0   0   
      0   0   0   0   0   
      0   0   0   0   0   
      0   0   0   0   0   
      0   0   0   0   0   
      0   0   0   0   0   
      0   0   0   0   0   
      0   0   0   0   0   
      0   0   0   0   0   
      0   0   0   0   0   
      0   0   0   0   0   
      0   0   0   0   0   
      0   0   0   0   0   
      0   0   0   0   0   
      0   0   0   0   0   
      0   0   0   0   0   
      0   0   0   0   0   
      0   0   0   0   0   
      0   0   0   0   0   
      0   0   0   0   0   
      0   0   0   0   0   
      0   0   0   0   0   
      0   0   0   0   0   
      0   0   0   0   0   
      0   0   0   0   0   
      0   0   0   0   0   
      0   0   0   0   0   
      0   0   0   0   0   
      0   0   0   0   0   
      0   0   0   0   0   
      0   0   0   0   0   
      0   0   0   0   0   
      0   0   0   0   0   
      0   0   0   0   0   
      0   0   0   0   0   
      0   0   0   0   0   
      0   0   0   0   0   
      0   0   0   0   0   
      0   0   0   0   0   
      0   0   0   0   0   
      0   0   0   0   0   
      0   0   0   0   0   
      0   0   0   0   0   
      0   0   0   0   0   
      0   0   0   0   0   
      0   0   0   0   0   
      0   0   0   0   0   
      0   0   0   0   0   
      0   0   0   0   0   
      0   0   0   0   0   
      0   0   0   0   0   
      0   0   0   0   0   
      0   0   0   0   0   
      0   0   0   0   0   
      0.0809640399555   0.0809741341845   0.081004444121   0.0810550515472   0.0811260928523   
      0.0812177590549   0.0813302956153   0.0814640017977   0.0816192292441   0.081796379309   
      0.0819958985659   0.0822182717483   0.0824640112287   0.0827336419864   0.0830276808899   
      0.0833466090556   0.0836908360711   0.0840606550449   0.0844561877904   0.0848773200262   
      0.0853236272768   0.0857942931916   0.0862880232114   0.086802957819   0.0873365908661   
      0.0878856995323   0.0884462931414   0.0890135881826   0.0895820163335   0.0901452709907   
      0.0906963958169   0.091227916229   0.0917320117686   0.092200724194   0.0926261931748   
      0.0930009089572   0.0933179695233   0.0935713287722   0.0937560221972   0.0938683574254   
      0.093906058764   0.0938683574254   0.0937560221972   0.0935713287722   0.0933179695233   
      0.0930009089572   0.0926261931748   0.092200724194   0.0917320117686   0.091227916229   
      0.0906963958169   0.0901452709907   0.0895820163335   0.0890135881826   0.0884462931414   
      0.0878856995323   0.0873365908661   0.086802957819   0.0862880232114   0.0857942931916   
      0.0853236272768   0.0848773200262   0.0844561877904   0.0840606550449   0.0836908360711   
      0.0833466090556   0.0830276808899   0.0827336419864   0.0824640112287   0.0822182717483   
      0.0819958985659   0.081796379309   0.0816192292441   0.0814640017977   0.0813302956153   
      0.0812177590549   0.0811260928523   0.0810550515472   0.081004444121   0.0809741341845   
      0.0883325039732   0.0883467300887   0.0883894521848   0.0884608015404   0.0885609970083   
      0.0886903449358   0.088849238717   0.0890381576104   0.0892576643112   0.0895084005924   
      0.0897910801344   0.090106477437   0.0904554114813   0.0908387225853   0.0912572407269   
      0.0917117435212   0.092202902102   0.0927312134348   0.0932969181355   0.0938999037533   
      0.0945395947028   0.0952148316021   0.0959237445926   0.09666362715   0.0974308187239   
      0.0982206060178   0.0990271535512   0.099843474103   0.100661448537   0.101471902313   
      0.102264742793   0.103029157469   0.10375386889   0.104427437671   0.105038601088   
      0.105576631634   0.106031697917   0.106395209499   0.106660127748   0.106821226385   
      0.106875288024   0.106821226385   0.106660127748   0.106395209499   0.106031697917   
      0.105576631634   0.105038601088   0.104427437671   0.10375386889   0.103029157469   
      0.102264742793   0.101471902313   0.100661448537   0.099843474103   0.0990271535512   
      0.0982206060178   0.0974308187239   0.09666362715   0.0959237445926   0.0952148316021   
      0.0945395947028   0.0938999037533   0.0932969181355   0.0927312134348   0.092202902102   
      0.0917117435212   0.0912572407269   0.0908387225853   0.0904554114813   0.090106477437   
      0.0897910801344   0.0895084005924   0.0892576643112   0.0890381576104   0.088849238717   
      0.0886903449358   0.0885609970083   0.0884608015404   0.0883894521848   0.0883467300887   
      0.100509995077   0.100532823376   0.100601387714   0.100715926426   0.100876836653   
      0.101084673937   0.101340151033   0.101644135286   0.101997643654   0.102401834161   
      0.102857992216   0.103367509863   0.103931855652   0.104552532446   0.105231020251   
      0.105968701053   0.106766762845   0.10762608064   0.108547073324   0.109529536925   
      0.110572457112   0.111673806628   0.112830336489   0.11403737307   0.115288636016   
      0.116576093923   0.117889875358   0.119218251656   0.120547704946   0.121863090008   
      0.123147892356   0.124384577936   0.12555502288   0.1266410056   0.127624738836   
      0.128489416451   0.129219748968   0.129802462827   0.130226740809   0.130484584563   
      0.130571084247   0.130484584563   0.130226740809   0.129802462827   0.129219748968   
      0.128489416451   0.127624738836   0.1266410056   0.12555502288   0.124384577936   
      0.123147892356   0.121863090008   0.120547704946   0.119218251656   0.117889875358   
      0.116576093923   0.115288636016   0.11403737307   0.112830336489   0.111673806628   
      0.110572457112   0.109529536925   0.108547073324   0.10762608064   0.106766762845   
      0.105968701053   0.105231020251   0.104552532446   0.103931855652   0.103367509863   
      0.102857992216   0.102401834161   0.101997643654   0.101644135286   0.101340151033   
      0.101084673937   0.100876836653   0.100715926426   0.100601387714   0.100532823376   
      0.109965096026   0.109997190756   0.110093594392   0.110254665158   0.110480999571   
      0.110773431183   0.11113302784   0.111561086391   0.112059123418   0.112628860041   
      0.113272198395   0.113991186788   0.114787970031   0.115664720957   0.116623548889   
      0.11766638086   0.118794811919   0.12000992208   0.121312059491   0.122700592318   
      0.124173635707   0.125727764623   0.127357728191   0.129056185551   0.130813486539   
      0.132617521884   0.134453666347   0.136304834081   0.138151658443   0.139972799352   
      0.141745371077   0.143445473481   0.145048801597   0.146531303035   0.147869850578   
      0.149042898428   0.150031094197   0.150817824049   0.151389674246   0.151736797873   
      0.151853180018   0.151736797873   0.151389674246   0.150817824049   0.150031094197   
      0.149042898428   0.147869850578   0.146531303035   0.145048801597   0.143445473481   
      0.141745371077   0.139972799352   0.138151658443   0.136304834081   0.134453666347   
      0.132617521884   0.130813486539   0.129056185551   0.127357728191   0.125727764623   
      0.124173635707   0.122700592318   0.121312059491   0.12000992208   0.118794811919   
      0.11766638086   0.116623548889   0.115664720957   0.114787970031   0.113991186788   
      0.113272198395   0.112628860041   0.112059123418   0.111561086391   0.11113302784   
      0.110773431183   0.110480999571   0.110254665158   0.110093594392   0.109997190756   
      0.11862324482   0.118664691976   0.118789193222   0.118997227539   0.11928959183   
      0.119667398123   0.120132068202   0.120685324128   0.121329172514   0.122065879813   
      0.122897935141   0.123827996454   0.124858815217   0.125993134211   0.127233552958   
      0.128582355638   0.130041297541   0.131611348309   0.133292393664   0.135082901979   
      0.136979567857   0.138976951236   0.141067136763   0.143239443103   0.145480214294   
      0.147772724126   0.150097219149   0.152431116366   0.154749358836   0.157024918085   
      0.159229418519   0.161333848272   0.16330931468   0.165127801736   0.166762891009   
      0.168190415535   0.169389026227   0.170340660512   0.171030911664   0.171449303442   
      0.171589477768   0.171449303442   0.171030911664   0.170340660512   0.169389026227   
      0.168190415535   0.166762891009   0.165127801736   0.16330931468   0.161333848272   
      0.159229418519   0.157024918085   0.154749358836   0.152431116366   0.150097219149   
      0.147772724126   0.145480214294   0.143239443103   0.141067136763   0.138976951236   
      0.136979567857   0.135082901979   0.133292393664   0.131611348309   0.130041297541   
      0.128582355638   0.127233552958   0.125993134211   0.124858815217   0.123827996454   
      0.122897935141   0.122065879813   0.121329172514   0.120685324128   0.120132068202   
      0.119667398123   0.11928959183   0.118997227539   0.118789193222   0.118664691976   
      0.126056731745   0.126106440324   0.126255760459   0.126505274614   0.126855950848   
      0.127309137786   0.127866555618   0.128530281025   0.12930272322   0.130186587435   
      0.13118482132   0.132300538863   0.133536915704   0.134897049286   0.136383777401   
      0.137999449638   0.139745648354   0.141622859306   0.143630097274   0.145764498647   
      0.148020900746   0.150391435636   0.152865173091   0.155427851558   0.158061735862   
      0.160745634763   0.163455100164   0.166162813526   0.168839146293   0.171452862667   
      0.173971918439   0.176364301179   0.178598856446   0.180646051435   0.182478639881   
      0.184072207457   0.185405592455   0.186461189742   0.187225155242   0.187687532888   
      0.187842326177   0.187687532888   0.187225155242   0.186461189742   0.185405592455   
      0.184072207457   0.182478639881   0.180646051435   0.178598856446   0.176364301179   
      0.173971918439   0.171452862667   0.168839146293   0.166162813526   0.163455100164   
      0.160745634763   0.158061735862   0.155427851558   0.152865173091   0.150391435636   
      0.148020900746   0.145764498647   0.143630097274   0.141622859306   0.139745648354   
      0.137999449638   0.136383777401   0.134897049286   0.133536915704   0.132300538863   
      0.13118482132   0.130186587435   0.12930272322   0.128530281025   0.127866555618   
      0.127309137786   0.126855950848   0.126505274614   0.126255760459   0.126106440324   
      0.131904879385   0.131961084206   0.132129919327   0.132412045548   0.132808559942   
      0.133320988269   0.133951271901   0.13470174665   0.135575110028   0.136574372443   
      0.137702786858   0.138963750484   0.140360671368   0.141896792454   0.143574966246   
      0.145397374785   0.14736519286   0.149478197308   0.151734332119   0.154129247627   
      0.156655841402   0.159303837482   0.16205944719   0.164905157157   0.167819686301   
      0.17077814257   0.173752392604   0.176711635234   0.179623146471   0.182453143566   
      0.18516770278   0.187733662158   0.190119447217   0.192295772314   0.19423619026   
      0.1959174836   0.197319909417   0.198427323124   0.19922721442   0.199710690431   
      0.199872438014   0.199710690431   0.19922721442   0.198427323124   0.197319909417   
      0.1959174836   0.19423619026   0.192295772314   0.190119447217   0.187733662158   
      0.18516770278   0.182453143566   0.179623146471   0.176711635234   0.173752392604   
      0.17077814257   0.167819686301   0.164905157157   0.16205944719   0.159303837482   
      0.156655841402   0.154129247627   0.151734332119   0.149478197308   0.14736519286   
      0.145397374785   0.143574966246   0.141896792454   0.140360671368   0.138963750484   
      0.137702786858   0.136574372443   0.135575110028   0.13470174665   0.133951271901   
      0.133320988269   0.132808559942   0.132412045548   0.132129919327   0.131961084206   
      0.13589740009   0.135958003196   0.13614005034   0.136444253417   0.136871793275   
      0.137424309853   0.138103885537   0.138913018739   0.139854583699   0.140931771421   
      0.142148005562   0.143506826112   0.145011733061   0.146665982166   0.148472325831   
      0.150432694396   0.152547817178   0.154816788768   0.157236594298   0.159801617262   
      0.162503163897   0.165329047413   0.168263281256   0.171285930733   0.174373164917   
      0.17749753513   0.180628483738   0.183733060514   0.186776798266   0.189724679531   
      0.192542116235   0.195195866063   0.197654822296   0.199890634928   0.20187814555   
      0.203595642225   0.205024959693   0.206151462814   0.206963956561   0.207454565135   
      0.207618617165   0.207454565135   0.206963956561   0.206151462814   0.205024959693   
      0.203595642225   0.20187814555   0.199890634928   0.197654822296   0.195195866063   
      0.192542116235   0.189724679531   0.186776798266   0.183733060514   0.180628483738   
      0.17749753513   0.174373164917   0.171285930733   0.168263281256   0.165329047413   
      0.162503163897   0.159801617262   0.157236594298   0.154816788768   0.152547817178   
      0.150432694396   0.148472325831   0.146665982166   0.145011733061   0.143506826112   
      0.142148005562   0.140931771421   0.139854583699   0.138913018739   0.138103885537   
      0.137424309853   0.136871793275   0.136444253417   0.13614005034   0.135958003196   
      0.137912303419   0.137975110646   0.138163778536   0.138479043903   0.138922128299   
      0.139494726814   0.140198989348   0.141037491134   0.142013188259   0.143129352754   
      0.144389480705   0.145797165856   0.147355930586   0.149069006166   0.150939055379   
      0.152967833198   0.155155785848   0.157501595338   0.160001685551   0.162649716496   
      0.165436104227   0.168347613233   0.171367073346   0.174473271947   0.177641062675   
      0.180841713573   0.184043492396   0.187212458359   0.19031340313   0.193310864728   
      0.196170130188   0.198858147949   0.20134428747   0.203600907902   0.205603724521   
      0.207331986456   0.208768498202   0.20989952894   0.210714657684   0.211206599917   
      0.2113710545   0.211206599917   0.210714657684   0.20989952894   0.208768498202   
      0.207331986456   0.205603724521   0.203600907902   0.20134428747   0.198858147949   
      0.196170130188   0.193310864728   0.19031340313   0.187212458359   0.184043492396   
      0.180841713573   0.177641062675   0.174473271947   0.171367073346   0.168347613233   
      0.165436104227   0.162649716496   0.160001685551   0.157501595338   0.155155785848   
      0.152967833198   0.150939055379   0.149069006166   0.147355930586   0.145797165856   
      0.144389480705   0.143129352754   0.142013188259   0.141037491134   0.140198989348   
      0.139494726814   0.138922128299   0.138479043903   0.138163778536   0.137975110646   
      0.137912303419   0.137975110646   0.138163778536   0.138479043903   0.138922128299   
      0.139494726814   0.140198989348   0.141037491134   0.142013188259   0.143129352754   
      0.144389480705   0.145797165856   0.147355930586   0.149069006166   0.150939055379   
      0.152967833198   0.155155785848   0.157501595338   0.160001685551   0.162649716496   
      0.165436104227   0.168347613233   0.171367073346   0.174473271947   0.177641062675   
      0.180841713573   0.184043492396   0.187212458359   0.19031340313   0.193310864728   
      0.196170130188   0.198858147949   0.20134428747   0.203600907902   0.205603724521   
      0.207331986456   0.208768498202   0.20989952894   0.210714657684   0.211206599917   
      0.2113710545   0.211206599917   0.210714657684   0.20989952894   0.208768498202   
      0.207331986456   0.205603724521   0.203600907902   0.20134428747   0.198858147949   
      0.196170130188   0.193310864728   0.19031340313   0.187212458359   0.184043492396   
      0.180841713573   0.177641062675   0.174473271947   0.171367073346   0.168347613233   
      0.165436104227   0.162649716496   0.160001685551   0.157501595338   0.155155785848   
      0.152967833198   0.150939055379   0.149069006166   0.147355930586   0.145797165856   
      0.144389480705   0.143129352754   0.142013188259   0.141037491134   0.140198989348   
      0.139494726814   0.138922128299   0.138479043903   0.138163778536   0.137975110646   
      0.13589740009   0.135958003196   0.13614005034   0.136444253417   0.136871793275   
      0.137424309853   0.138103885537   0.138913018739   0.139854583699   0.140931771421   
      0.142148005562   0.143506826112   0.145011733061   0.146665982166   0.148472325831   
      0.150432694396   0.152547817178   0.154816788768   0.157236594298   0.159801617262   
      0.162503163897   0.165329047413   0.168263281256   0.171285930733   0.174373164917   
      0.17749753513   0.180628483738   0.183733060514   0.186776798266   0.189724679531   
      0.192542116235   0.195195866063   0.197654822296   0.199890634928   0.20187814555   
      0.203595642225   0.205024959693   0.206151462814   0.206963956561   0.207454565135   
      0.207618617165   0.207454565135   0.206963956561   0.206151462814   0.205024959693   
      0.203595642225   0.20187814555   0.199890634928   0.197654822296   0.195195866063   
      0.192542116235   0.189724679531   0.186776798266   0.183733060514   0.180628483738   
      0.17749753513   0.174373164917   0.171285930733   0.168263281256   0.165329047413   
      0.162503163897   0.159801617262   0.157236594298   0.154816788768   0.152547817178   
      0.150432694396   0.148472325831   0.146665982166   0.145011733061   0.143506826112   
      0.142148005562   0.140931771421   0.139854583699   0.138913018739   0.138103885537   
      0.137424309853   0.136871793275   0.136444253417   0.13614005034   0.135958003196   
      0.131904879385   0.131961084206   0.132129919327   0.132412045548   0.132808559942   
      0.133320988269   0.133951271901   0.13470174665   0.135575110028   0.136574372443   
      0.137702786858   0.138963750484   0.140360671368   0.141896792454   0.143574966246   
      0.145397374785   0.14736519286   0.149478197308   0.151734332119   0.154129247627   
      0.156655841402   0.159303837482   0.16205944719   0.164905157157   0.167819686301   
      0.17077814257   0.173752392604   0.176711635234   0.179623146471   0.182453143566   
      0.18516770278   0.187733662158   0.190119447217   0.192295772314   0.19423619026   
      0.1959174836   0.197319909417   0.198427323124   0.19922721442   0.199710690431   
      0.199872438014   0.199710690431   0.19922721442   0.198427323124   0.197319909417   
      0.1959174836   0.19423619026   0.192295772314   0.190119447217   0.187733662158   
      0.18516770278   0.182453143566   0.179623146471   0.176711635234   0.173752392604   
      0.17077814257   0.167819686301   0.164905157157   0.16205944719   0.159303837482   
      0.156655841402   0.154129247627   0.151734332119   0.149478197308   0.14736519286   
      0.145397374785   0.143574966246   0.141896792454   0.140360671368   0.138963750484   
      0.137702786858   0.136574372443   0.135575110028   0.13470174665   0.133951271901   
      0.133320988269   0.132808559942   0.132412045548   0.132129919327   0.131961084206   
      0.126056731745   0.126106440324   0.126255760459   0.126505274614   0.126855950848   
      0.127309137786   0.127866555618   0.128530281025   0.12930272322   0.130186587435   
      0.13118482132   0.132300538863   0.133536915704   0.134897049286   0.136383777401   
      0.137999449638   0.139745648354   0.141622859306   0.143630097274   0.145764498647   
      0.148020900746   0.150391435636   0.152865173091   0.155427851558   0.158061735862   
      0.160745634763   0.163455100164   0.166162813526   0.168839146293   0.171452862667   
      0.173971918439   0.176364301179   0.178598856446   0.180646051435   0.182478639881   
      0.184072207457   0.185405592455   0.186461189742   0.187225155242   0.187687532888   
      0.187842326177   0.187687532888   0.187225155242   0.186461189742   0.185405592455   
      0.184072207457   0.182478639881   0.180646051435   0.178598856446   0.176364301179   
      0.173971918439   0.171452862667   0.168839146293   0.166162813526   0.163455100164   
      0.160745634763   0.158061735862   0.155427851558   0.152865173091   0.150391435636   
      0.148020900746   0.145764498647   0.143630097274   0.141622859306   0.139745648354   
      0.137999449638   0.136383777401   0.134897049286   0.133536915704   0.132300538863   
      0.13118482132   0.130186587435   0.12930272322   0.128530281025   0.127866555618   
      0.127309137786   0.126855950848   0.126505274614   0.126255760459   0.126106440324   
      0.11862324482   0.118664691976   0.118789193222   0.118997227539   0.11928959183   
      0.119667398123   0.120132068202   0.120685324128   0.121329172514   0.122065879813   
      0.122897935141   0.123827996454   0.124858815217   0.125993134211   0.127233552958   
      0.128582355638   0.130041297541   0.131611348309   0.133292393664   0.135082901979   
      0.136979567857   0.138976951236   0.141067136763   0.143239443103   0.145480214294   
      0.147772724126   0.150097219149   0.152431116366   0.154749358836   0.157024918085   
      0.159229418519   0.161333848272   0.16330931468   0.165127801736   0.166762891009   
      0.168190415535   0.169389026227   0.170340660512   0.171030911664   0.171449303442   
      0.171589477768   0.171449303442   0.171030911664   0.170340660512   0.169389026227   
      0.168190415535   0.166762891009   0.165127801736   0.16330931468   0.161333848272   
      0.159229418519   0.157024918085   0.154749358836   0.152431116366   0.150097219149   
      0.147772724126   0.145480214294   0.143239443103   0.141067136763   0.138976951236   
      0.136979567857   0.135082901979   0.133292393664   0.131611348309   0.130041297541   
      0.128582355638   0.127233552958   0.125993134211   0.124858815217   0.123827996454   
      0.122897935141   0.122065879813   0.121329172514   0.120685324128   0.120132068202   