<?xml version="1.0"?>
<VTKFile type="ImageData" version="0.1" byte_order="LittleEndian">
  <ImageData WholeExtent="0 79 0 19 0 19" Origin="0 0 0" Spacing="1 1 1">
  <Piece Extent="0 79 0 19 0 19">
    <PointData Scalars="density">
       <DataArray type="Float32" Name="reddensity" NumberOfComponents="1" format="ascii">
      0   0   0   0   0   
      0   0   0   0   0   
      0   0   0   0   0   
      0   0   0   0   0   
      0   0   0   0   0   
      0   0   0   0   0   
      0   0   0   0   0   
      0   0   0   0   0   
      0   0   0   0   0   
      0   0   0   0   0   
      0   0   0   0   0   
      0   0   0   0   0   
      0   0   0   0   0   
      0   0   0   0   0   
      0   0   0   0   0   
      0   0   0   0   0   
      0   0   0   0   0   
      0   0   0   0   0   
      0   0   0   0   0   
      0   0   0   0   0   
      0   0   0   0   0   
      0   0   0   0   0   
      0   0   0   0   0   
      0   0   0   0   0   
      0   0   0   0   0   
      0   0   0   0   0   
      0   0   0   0   0   
      0   0   0   0   0   
      0   0   0   0   0   
      0   0   0   0   0   
      0   0   0   0   0   
      0   0   0   0   0   
      0   0   0   0   0   
      0   0   0   0   0   
      0   0   0   0   0   
      0   0   0   0   0   
      0   0   0   0   0   
      0   0   0   0   0   
      0   0   0   0   0   
      0   0   0   0   0   
      0   0   0   0   0   
      0   0   0   0   0   
      0   0   0   0   0   
      0   0   0   0   0   
      0   0   0   0   0   
      0   0   0   0   0   
      0   0   0   0   0   
      0   0   0   0   0   
      0   0   0   0   0   
      0   0   0   0   0   
      0   0   0   0   0   
      0   0   0   0   0   
      0   0   0   0   0   
      0   0   0   0   0   
      0   0   0   0   0   
      0   0   0   0   0   
      0   0   0   0   0   
      0   0   0   0   0   
      0   0   0   0   0   
      0   0   0   0   0   
      0   0   0   0   0   
      0   0   0   0   0   
      0   0   0   0   0   
      0   0   0   0   0   
      0   0   0   0   0   
      0   0   0   0   0   
      0   0   0   0   0   
      0   0   0   0   0   
      0   0   0   0   0   
      0   0   0   0   0   
      0   0   0   0   0   
      0   0   0   0   0   
      0   0   0   0   0   
      0   0   0   0   0   
      0   0   0   0   0   
      0   0   0   0   0   
      0   0   0   0   0   
      0   0   0   0   0   
      0   0   0   0   0   
      0   0   0   0   0   
      0   0   0   0   0   
      0   0   0   0   0   
      0   0   0   0   0   
      0   0   0   0   0   
      0   0   0   0   0   
      0   0   0   0   0   
      0   0   0   0   0   
      0   0   0   0   0   
      0   0   0   0   0   
      0   0   0   0   0   
      0   0   0   0   0   
      0   0   0   0   0   
      0   0   0   0   0   
      0   0   0   0   0   
      0   0   0   0   0   
      0   0   0   0   0   
      0   0   0   0   0   
      0   0   0   0   0   
      0   0   0   0   0   
      0   0   0   0   0   
      0   0   0   0   0   
      0   0   0   0   0   
      0   0   0   0   0   
      0   0   0   0   0   
      0   0   0   0   0   
      0   0   0   0   0   
      0   0   0   0   0   
      0   0   0   0   0   
      0   0   0   0   0   
      0   0   0   0   0   
      0   0   0   0   0   
      0   0   0   0   0   
      0   0   0   0   0   
      0   0   0   0   0   
      0   0   0   0   0   
      0   0   0   0   0   
      0   0   0   0   0   
      0   0   0   0   0   
      0   0   0   0   0   
      0   0   0   0   0   
      0   0   0   0   0   
      0   0   0   0   0   
      0   0   0   0   0   
      0   0   0   0   0   
      0   0   0   0   0   
      0   0   0   0   0   
      0   0   0   0   0   
      0   0   0   0   0   
      0   0   0   0   0   
      0   0   0   0   0   
      0   0   0   0   0   
      0   0   0   0   0   
      0   0   0   0   0   
      0   0   0   0   0   
      0   0   0   0   0   
      0   0   0   0   0   
      0   0   0   0   0   
      0   0   0   0   0   
      0   0   0   0   0   
      0   0   0   0   0   
      0   0   0   0   0   
      0   0   0   0   0   
      0   0   0   0   0   
      0   0   0   0   0   
      0   0   0   0   0   
      0   0   0   0   0   
      0   0   0   0   0   
      0   0   0   0   0   
      0   0   0   0   0   
      0   0   0   0   0   
      0   0   0   0   0   
      0   0   0   0   0   
      0   0   0   0   0   
      0   0   0   0   0   
      0   0   0   0   0   
      0   0   0   0   0   
      0   0   0   0   0   
      0   0   0   0   0   
      0   0   0   0   0   
      0   0   0   0   0   
      0   0   0   0   0   
      0   0   0   0   0   
      0   0   0   0   0   
      0   0   0   0   0   
      0   0   0   0   0   
      0   0   0   0   0   
      0   0   0   0   0   
      0   0   0   0   0   
      0   0   0   0   0   
      0   0   0   0   0   
      0   0   0   0   0   
      0   0   0   0   0   
      0   0   0   0   0   
      0   0   0   0   0   
      0   0   0   0   0   
      0   0   0   0   0   
      0   0   0   0   0   
      0   0   0   0   0   
      0   0   0   0   0   
      0   0   0   0   0   
      0   0   0   0   0   
      0   0   0   0   0   
      0   0   0   0   0   
      0   0   0   0   0   
      0   0   0   0   0   
      0   0   0   0   0   
      0   0   0   0   0   
      0   0   0   0   0   
      0   0   0   0   0   
      0   0   0   0   0   
      0   0   0   0   0   
      0   0   0   0   0   
      0   0   0   0   0   
      0   0   0   0   0   
      0   0   0   0   0   
      0   0   0   0   0   
      0   0   0   0   0   
      0   0   0   0   0   
      0   0   0   0   0   
      0   0   0   0   0   
      0   0   0   0   0   
      0   0   0   0   0   
      0   0   0   0   0   
      0   0   0   0   0   
      0   0   0   0   0   
      0   0   0   0   0   
      0   0   0   0   0   
      0   0   0   0   0   
      0   0   0   0   0   
      0   0   0   0   0   
      0   0   0   0   0   
      0   0   0   0   0   
      0   0   0   0   0   
      0   0   0   0   0   
      0   0   0   0   0   
      0   0   0   0   0   
      0   0   0   0   0   
      0   0   0   0   0   
      0   0   0   0   0   
      0   0   0   0   0   
      0   0   0   0   0   
      0   0   0   0   0   
      0   0   0   0   0   
      0   0   0   0   0   
      0   0   0   0   0   
      0   0   0   0   0   
      0   0   0   0   0   
      0   0   0   0   0   
      0   0   0   0   0   
      0   0   0   0   0   
      0   0   0   0   0   
      0   0   0   0   0   
      0   0   0   0   0   
      0   0   0   0   0   
      0   0   0   0   0   
      0   0   0   0   0   
      0   0   0   0   0   
      0   0   0   0   0   
      0   0   0   0   0   
      0   0   0   0   0   
      0   0   0   0   0   
      0   0   0   0   0   
      0   0   0   0   0   
      0   0   0   0   0   
      0   0   0   0   0   
      0   0   0   0   0   
      0   0   0   0   0   
      0   0   0   0   0   
      0   0   0   0   0   
      0   0   0   0   0   
      0   0   0   0   0   
      0   0   0   0   0   
      0   0   0   0   0   
      0   0   0   0   0   
      0   0   0   0   0   
      0   0   0   0   0   
      0   0   0   0   0   
      0   0   0   0   0   
      0   0   0   0   0   
      0   0   0   0   0   
      0   0   0   0   0   
      0   0   0   0   0   
      0   0   0   0   0   
      0   0   0   0   0   
      0   0   0   0   0   
      0   0   0   0   0   
      0   0   0   0   0   
      0   0   0   0   0   
      0   0   0   0   0   
      0   0   0   0   0   
      0   0   0   0   0   
      0   0   0   0   0   
      0   0   0   0   0   
      0   0   0   0   0   
      0   0   0   0   0   
      0   0   0   0   0   
      0   0   0   0   0   
      0   0   0   0   0   
      0   0   0   0   0   
      0   0   0   0   0   
      0   0   0   0   0   
      0   0   0   0   0   
      0   0   0   0   0   
      0   0   0   0   0   
      0   0   0   0   0   
      0   0   0   0   0   
      0   0   0   0   0   
      0   0   0   0   0   
      0   0   0   0   0   
      0   0   0   0   0   
      0   0   0   0   0   
      0   0   0   0   0   
      0   0   0   0   0   
      0   0   0   0   0   
      0   0   0   0   0   
      0   0   0   0   0   
      0   0   0   0   0   
      0   0   0   0   0   
      0   0   0   0   0   
      0   0   0   0   0   
      0   0   0   0   0   
      0   0   0   0   0   
      0   0   0   0   0   
      0   0   0   0   0   
      0   0   0   0   0   
      0   0   0   0   0   
      0   0   0   0   0   
      0   0   0   0   0   
      0   0   0   0   0   
      0   0   0   0   0   
      0   0   0   0   0   
      0   0   0   0   0   
      0   0   0   0   0   
      0   0   0   0   0   
      0   0   0   0   0   
      0   0   0   0   0   
      0   0   0   0   0   
      0   0   0   0   0   
      0   0   0   0   0   
      0   0   0   0   0   
      0   0   0   0   0   
      0   0   0   0   0   
      0   0   0   0   0   
      0   0   0   0   0   
      0   0   0   0   0   
      0   0   0   0   0   
      0   0   0   0   0   
      0   0   0   0   0   
      0   0   0   0   0   
      0   0   0   0   0   
      0   0   0   0   0   
      0   0   0   0   0   
      0   0   0   0   0   
      0   0   0   0   0   
      0   0   0   0   0   
      0   0   0   0   0   
      0.0821988727922   0.0822067366552   0.082230335468   0.0822696905947   0.082324836595   
      0.0823958195934   0.0824826948713   0.0825855235578   0.0827043682606   0.0828392874424   
      0.0829903283221   0.0831575180543   0.0833408529323   0.0835402853679   0.0837557084281   
      0.0839869377743   0.084233690948   0.0844955640892   0.0847720063667   0.0850622926328   
      0.0853654950948   0.0856804550939   0.0860057563973   0.0863397016896   0.086680294186   
      0.0870252264281   0.0873718783341   0.0877173264327   0.0880583658849   0.0883915463988   
      0.0887132224699   0.0890196175802   0.0893069011019   0.089571275748   0.0898090725681   
      0.0900168497635   0.090191491077   0.0903302992371   0.0904310799461   0.0904922122097   
      0.0905127013905   0.0904922122097   0.0904310799461   0.0903302992371   0.090191491077   
      0.0900168497635   0.0898090725681   0.089571275748   0.0893069011019   0.0890196175802   
      0.0887132224699   0.0883915463988   0.0880583658849   0.0877173264327   0.0873718783341   
      0.0870252264281   0.086680294186   0.0863397016896   0.0860057563973   0.0856804550939   
      0.0853654950948   0.0850622926328   0.0847720063667   0.0844955640892   0.084233690948   
      0.0839869377743   0.0837557084281   0.0835402853679   0.0833408529323   0.0831575180543   
      0.0829903283221   0.0828392874424   0.0827043682606   0.0825855235578   0.0824826948713   
      0.0823958195934   0.082324836595   0.0822696905947   0.082230335468   0.0822067366552   
      0.0901146184096   0.0901257947329   0.090159336608   0.0902152822793   0.0902936938898   
      0.0903946549928   0.0905182668819   0.0906646435555   0.0908339050766   0.0910261690431   
      0.0912415398374   0.0914800952976   0.0917418704363   0.0920268378469   0.0923348844878   
      0.0926657846313   0.0930191689129   0.0933944896398   0.0937909827995   0.0942076275644   
      0.0946431044988   0.0950957541203   0.095563537916   0.0960440043263   0.096534262527   
      0.0970309670197   0.0975303160215   0.0980280663888   0.098519567296   0.0989998141169   
      0.0994635229499   0.0999052250498   0.100319379156   0.100700498439   0.101043287616   
      0.101342784855   0.101594502402   0.101794559589   0.101939801942   0.102027900631   
      0.102057427316   0.102027900631   0.101939801942   0.101794559589   0.101594502402   
      0.101342784855   0.101043287616   0.100700498439   0.100319379156   0.0999052250498   
      0.0994635229499   0.0989998141169   0.098519567296   0.0980280663888   0.0975303160215   
      0.0970309670197   0.096534262527   0.0960440043263   0.095563537916   0.0950957541203   
      0.0946431044988   0.0942076275644   0.0937909827995   0.0933944896398   0.0930191689129   
      0.0926657846313   0.0923348844878   0.0920268378469   0.0917418704363   0.0914800952976   
      0.0912415398374   0.0910261690431   0.0908339050766   0.0906646435555   0.0905182668819   
      0.0903946549928   0.0902936938898   0.0902152822793   0.090159336608   0.0901257947329   
      0.103439177817   0.103457273749   0.103511586829   0.103602192073   0.103729211673   
      0.103892810588   0.104093190049   0.104330578655   0.104605220653   0.104917360922   
      0.105267226078   0.105655001128   0.106080801024   0.106544636563   0.107046374137   
      0.107585689042   0.10816201233   0.108774471591   0.109421826547   0.110102400979   
      0.11081401318   0.111553907906   0.112318693498   0.113104288479   0.113905882384   
      0.114717915721   0.115534083788   0.116347368451   0.117150100963   0.117934057473   
      0.118690587138   0.119410770795   0.120085606191   0.120706213886   0.121264056384   
      0.121751161877   0.12216034329   0.122485403239   0.122721315871   0.122864377524   
      0.122912319447   0.122864377524   0.122721315871   0.122485403239   0.12216034329   
      0.121751161877   0.121264056384   0.120706213886   0.120085606191   0.119410770795   
      0.118690587138   0.117934057473   0.117150100963   0.116347368451   0.115534083788   
      0.114717915721   0.113905882384   0.113104288479   0.112318693498   0.111553907906   
      0.11081401318   0.110102400979   0.109421826547   0.108774471591   0.10816201233   
      0.107585689042   0.107046374137   0.106544636563   0.106080801024   0.105655001128   
      0.105267226078   0.104917360922   0.104605220653   0.104330578655   0.104093190049   
      0.103892810588   0.103729211673   0.103602192073   0.103511586829   0.103457273749   
      0.11415347663   0.114179056176   0.114255833585   0.114383923872   0.114563514318   
      0.114794857607   0.115078261744   0.115414076254   0.115802674079   0.116244428432   
      0.11673968381   0.117288720299   0.117891710329   0.118548667099   0.119259384107   
      0.120023365537   0.12083974772   0.121707212529   0.122623894394   0.123587283516   
      0.124594128944   0.125640346173   0.126720934908   0.127829913316   0.12896027549   
      0.130103978692   0.131251966284   0.132394230941   0.133519920913   0.134617489791   
      0.135674887686   0.136679789126   0.137619850613   0.138482988769   0.13925766866   
      0.139933191147   0.14049996809   0.140949774793   0.141275970187   0.141473676655   
      0.141539913104   0.141473676655   0.141275970187   0.140949774793   0.14049996809   
      0.139933191147   0.13925766866   0.138482988769   0.137619850613   0.136679789126   
      0.135674887686   0.134617489791   0.133519920913   0.132394230941   0.131251966284   
      0.130103978692   0.12896027549   0.127829913316   0.126720934908   0.125640346173   
      0.124594128944   0.123587283516   0.122623894394   0.121707212529   0.12083974772   
      0.120023365537   0.119259384107   0.118548667099   0.117891710329   0.117288720299   
      0.11673968381   0.116244428432   0.115802674079   0.115414076254   0.115078261744   
      0.114794857607   0.114563514318   0.114383923872   0.114255833585   0.114179056176   
      0.124095656092   0.124128785613   0.124228225547   0.124394128134   0.124626740806   
      0.124926396384   0.125293498706   0.12572850302   0.126231890328   0.12680413472   
      0.127445662654   0.128156803078   0.128937727357   0.12978837816   0.130708386768   
      0.131696978798   0.132752869081   0.133874147368   0.135058157689   0.136301375494   
      0.137599288054   0.138946284845   0.140335565686   0.141759074968   0.143207470288   
      0.144670133057   0.146135227065   0.14758980873   0.149019989811   0.15041115018   
      0.151748195003   0.153015847796   0.154198968563   0.155282884869   0.156253723227   
      0.157098728628   0.157806561247   0.158367560983   0.158773972432   0.159020124729   
      0.159102562393   0.159020124729   0.158773972432   0.158367560983   0.157806561247   
      0.157098728628   0.156253723227   0.155282884869   0.154198968563   0.153015847796   
      0.151748195003   0.15041115018   0.149019989811   0.14758980873   0.146135227065   
      0.144670133057   0.143207470288   0.141759074968   0.140335565686   0.138946284845   
      0.137599288054   0.136301375494   0.135058157689   0.133874147368   0.132752869081   
      0.131696978798   0.130708386768   0.12978837816   0.128937727357   0.128156803078   
      0.127445662654   0.12680413472   0.126231890328   0.12572850302   0.125293498706   
      0.124926396384   0.124626740806   0.124394128134   0.124228225547   0.124128785613   
      0.13267141387   0.132711187646   0.13283056965   0.133029739448   0.133308987982   
      0.133668704658   0.134109358432   0.134631472091   0.135235588716   0.13592222918   
      0.136691839424   0.13754472626   0.138480980598   0.139500387278   0.140602321213   
      0.141785630306   0.143048506636   0.14438834869   0.145801618895   0.147283702342   
      0.148828774141   0.150429684179   0.152077868943   0.15376330023   0.155474479856   
      0.157198487777   0.158921088379   0.160626896251   0.162299598845   0.1639222295   
      0.165477480831   0.166948045815   0.168316972497   0.169568018009   0.170685988676   
      0.17165705493   0.172469032368   0.173111623019   0.173576613418   0.173858028113   
      0.173952238575   0.173858028113   0.173576613418   0.173111623019   0.172469032368   
      0.17165705493   0.170685988676   0.169568018009   0.168316972497   0.166948045815   
      0.165477480831   0.1639222295   0.162299598845   0.160626896251   0.158921088379   
      0.157198487777   0.155474479856   0.15376330023   0.152077868943   0.150429684179   
      0.148828774141   0.147283702342   0.145801618895   0.14438834869   0.143048506636   
      0.141785630306   0.140602321213   0.139500387278   0.138480980598   0.13754472626   
      0.136691839424   0.13592222918   0.135235588716   0.134631472091   0.134109358432   
      0.133668704658   0.133308987982   0.133029739448   0.13283056965   0.132711187646   
      0.139421697863   0.139466669684   0.139601651439   0.139826838982   0.140142548509   
      0.140549200729   0.141047297739   0.141637391654   0.142320043859   0.143095773569   
      0.143964994333   0.144927937162   0.145984559202   0.147134437299   0.148376646527   
      0.149709624725   0.151131025423   0.152637563101   0.15422485649   0.155887277474   
      0.157617814795   0.159407963016   0.161247647736   0.163125197677   0.16502737268   
      0.166939453972   0.16884539932   0.170728061255   0.172569461921   0.174351113822   
      0.176054372443   0.177660804755   0.179152557277   0.18051270863   0.181725594052   
      0.182777092788   0.183654872969   0.184348592106   0.184850054172   0.1851533261   
      0.185254817366   0.1851533261   0.184850054172   0.184348592106   0.183654872969   
      0.182777092788   0.181725594052   0.18051270863   0.179152557277   0.177660804755   
      0.176054372443   0.174351113822   0.172569461921   0.170728061255   0.16884539932   
      0.166939453972   0.16502737268   0.163125197677   0.161247647736   0.159407963016   
      0.157617814795   0.155887277474   0.15422485649   0.152637563101   0.151131025423   
      0.149709624725   0.148376646527   0.147134437299   0.145984559202   0.144927937162   
      0.143964994333   0.143095773569   0.142320043859   0.141637391654   0.141047297739   
      0.140549200729   0.140142548509   0.139826838982   0.139601651439   0.139466669684   
      0.144026479342   0.14407495225   0.144220439952   0.14446314592   0.144803397571   
      0.145241628177   0.145778350472   0.146414120944   0.147149493558   0.147984961548   
      0.148920885825   0.149957408696   0.151094351898   0.15233109848   0.15366645897   
      0.155098523434   0.156624502547   0.158240562616   0.159941661415   0.161721393681   
      0.163571856724   0.165483547746   0.167445304603   0.169444300834   0.17146610348   
      0.173494798726   0.17551318582   0.177503034661   0.179445397384   0.181320959988   
      0.183110417095   0.18479485175   0.18635610285   0.18777710526   0.189042191346   
      0.1901373471   0.191050420456   0.19177128329   0.192291951442   0.192606668783   
      0.192711961602   0.192606668783   0.192291951442   0.19177128329   0.191050420456   
      0.1901373471   0.189042191346   0.18777710526   0.18635610285   0.18479485175   
      0.183110417095   0.181320959988   0.179445397384   0.177503034661   0.17551318582   
      0.173494798726   0.17146610348   0.169444300834   0.167445304603   0.165483547746   
      0.163571856724   0.161721393681   0.159941661415   0.158240562616   0.156624502547   
      0.155098523434   0.15366645897   0.15233109848   0.151094351898   0.149957408696   
      0.148920885825   0.147984961548   0.147149493558   0.146414120944   0.145778350472   
      0.145241628177   0.144803397571   0.14446314592   0.144220439952   0.14407495225   
      0.146348532027   0.14639875265   0.146549484437   0.146800933432   0.147153430532   
      0.147607412158   0.14816339208   0.148821923344   0.149583549016   0.150448740314   
      0.151417820696   0.152490874591   0.153667639834   0.154947383504   0.156328761792   
      0.157809665846   0.159387057163   0.161056798001   0.162813484329   0.164650290833   
      0.166558839089   0.168529101036   0.170549349773   0.1726061685   0.174684525656   
      0.176767920426   0.178838597744   0.18087782656   0.18286622992   0.184784151182   
      0.186612038025   0.188330825196   0.189922298249   0.191369423595   0.192656634538   
      0.193770067842   0.194697750126   0.195429737432   0.195958214105   0.196277558598   
      0.19638438384   0.196277558598   0.195958214105   0.195429737432   0.194697750126   
      0.193770067842   0.192656634538   0.191369423595   0.189922298249   0.188330825196   
      0.186612038025   0.184784151182   0.18286622992   0.18087782656   0.178838597744   
      0.176767920426   0.174684525656   0.1726061685   0.170549349773   0.168529101036   
      0.166558839089   0.164650290833   0.162813484329   0.161056798001   0.159387057163   
      0.157809665846   0.156328761792   0.154947383504   0.153667639834   0.152490874591   
      0.151417820696   0.150448740314   0.149583549016   0.148821923344   0.14816339208   
      0.147607412158   0.147153430532   0.146800933432   0.146549484437   0.14639875265   
      0.146348532027   0.14639875265   0.146549484437   0.146800933432   0.147153430532   
      0.147607412158   0.14816339208   0.148821923344   0.149583549016   0.150448740314   
      0.151417820696   0.152490874591   0.153667639834   0.154947383504   0.156328761792   
      0.157809665846   0.159387057163   0.161056798001   0.162813484329   0.164650290833   
      0.166558839089   0.168529101036   0.170549349773   0.1726061685   0.174684525656   
      0.176767920426   0.178838597744   0.18087782656   0.18286622992   0.184784151182   
      0.186612038025   0.188330825196   0.189922298249   0.191369423595   0.192656634538   
      0.193770067842   0.194697750126   0.195429737432   0.195958214105   0.196277558598   
      0.19638438384   0.196277558598   0.195958214105   0.195429737432   0.194697750126   
      0.193770067842   0.192656634538   0.191369423595   0.189922298249   0.188330825196   
      0.186612038025   0.184784151182   0.18286622992   0.18087782656   0.178838597744   
      0.176767920426   0.174684525656   0.1726061685   0.170549349773   0.168529101036   
      0.166558839089   0.164650290833   0.162813484329   0.161056798001   0.159387057163   
      0.157809665846   0.156328761792   0.154947383504   0.153667639834   0.152490874591   
      0.151417820696   0.150448740314   0.149583549016   0.148821923344   0.14816339208   
      0.147607412158   0.147153430532   0.146800933432   0.146549484437   0.14639875265   
      0.144026479342   0.14407495225   0.144220439952   0.14446314592   0.144803397571   
      0.145241628177   0.145778350472   0.146414120944   0.147149493558   0.147984961548   
      0.148920885825   0.149957408696   0.151094351898   0.15233109848   0.15366645897   
      0.155098523434   0.156624502547   0.158240562616   0.159941661415   0.161721393681   
      0.163571856724   0.165483547746   0.167445304603   0.169444300834   0.17146610348   
      0.173494798726   0.17551318582   0.177503034661   0.179445397384   0.181320959988   
      0.183110417095   0.18479485175   0.18635610285   0.18777710526   0.189042191346   
      0.1901373471   0.191050420456   0.19177128329   0.192291951442   0.192606668783   
      0.192711961602   0.192606668783   0.192291951442   0.19177128329   0.191050420456   
      0.1901373471   0.189042191346   0.18777710526   0.18635610285   0.18479485175   
      0.183110417095   0.181320959988   0.179445397384   0.177503034661   0.17551318582   
      0.173494798726   0.17146610348   0.169444300834   0.167445304603   0.165483547746   
      0.163571856724   0.161721393681   0.159941661415   0.158240562616   0.156624502547   
      0.155098523434   0.15366645897   0.15233109848   0.151094351898   0.149957408696   
      0.148920885825   0.147984961548   0.147149493558   0.146414120944   0.145778350472   
      0.145241628177   0.144803397571   0.14446314592   0.144220439952   0.14407495225   
      0.139421697863   0.139466669684   0.139601651439   0.139826838982   0.140142548509   
      0.140549200729   0.141047297739   0.141637391654   0.142320043859   0.143095773569   
      0.143964994333   0.144927937162   0.145984559202   0.147134437299   0.148376646527   
      0.149709624725   0.151131025423   0.152637563101   0.15422485649   0.155887277474   
      0.157617814795   0.159407963016   0.161247647736   0.163125197677   0.16502737268   
      0.166939453972   0.16884539932   0.170728061255   0.172569461921   0.174351113822   
      0.176054372443   0.177660804755   0.179152557277   0.18051270863   0.181725594052   
      0.182777092788   0.183654872969   0.184348592106   0.184850054172   0.1851533261   
      0.185254817366   0.1851533261   0.184850054172   0.184348592106   0.183654872969   
      0.182777092788   0.181725594052   0.18051270863   0.179152557277   0.177660804755   
      0.176054372443   0.174351113822   0.172569461921   0.170728061255   0.16884539932   
      0.166939453972   0.16502737268   0.163125197677   0.161247647736   0.159407963016   
      0.157617814795   0.155887277474   0.15422485649   0.152637563101   0.151131025423   
      0.149709624725   0.148376646527   0.147134437299   0.145984559202   0.144927937162   
      0.143964994333   0.143095773569   0.142320043859   0.141637391654   0.141047297739   
      0.140549200729   0.140142548509   0.139826838982   0.139601651439   0.139466669684   
      0.13267141387   0.132711187646   0.13283056965   0.133029739448   0.133308987982   
      0.133668704658   0.134109358432   0.134631472091   0.135235588716   0.13592222918   
      0.136691839424   0.13754472626   0.138480980598   0.139500387278   0.140602321213   
      0.141785630306   0.143048506636   0.14438834869   0.145801618895   0.147283702342   
      0.148828774141   0.150429684179   0.152077868943   0.15376330023   0.155474479856   
      0.157198487777   0.158921088379   0.160626896251   0.162299598845   0.1639222295   
      0.165477480831   0.166948045815   0.168316972497   0.169568018009   0.170685988676   
      0.17165705493   0.172469032368   0.173111623019   0.173576613418   0.173858028113   
      0.173952238575   0.173858028113   0.173576613418   0.173111623019   0.172469032368   
      0.17165705493   0.170685988676   0.169568018009   0.168316972497   0.166948045815   
      0.165477480831   0.1639222295   0.162299598845   0.160626896251   0.158921088379   
      0.157198487777   0.155474479856   0.15376330023   0.152077868943   0.150429684179   
      0.148828774141   0.147283702342   0.145801618895   0.14438834869   0.143048506636   
      0.141785630306   0.140602321213   0.139500387278   0.138480980598   0.13754472626   
      0.136691839424   0.13592222918   0.135235588716   0.134631472091   0.134109358432   
      0.133668704658   0.133308987982   0.133029739448   0.13283056965   0.132711187646   
      0.124095656092   0.124128785613   0.124228225547   0.124394128134   0.124626740806   
      0.124926396384   0.125293498706   0.12572850302   0.126231890328   0.12680413472   
      0.127445662654   0.128156803078   0.128937727357   0.12978837816   0.130708386768   
      0.131696978798   0.132752869081   0.133874147368   0.135058157689   0.136301375494   
      0.137599288054   0.138946284845   0.140335565686   0.141759074968   0.143207470288   
      0.144670133057   0.146135227065   0.14758980873   0.149019989811   0.15041115018   
      0.151748195003   0.153015847796   0.154198968563   0.155282884869   0.156253723227   
      0.157098728628   0.157806561247   0.158367560983   0.158773972432   0.159020124729   
      0.159102562393   0.159020124729   0.158773972432   0.158367560983   0.157806561247   
      0.157098728628   0.156253723227   0.155282884869   0.154198968563   0.153015847796   
      0.151748195003   0.15041115018   0.149019989811   0.14758980873   0.146135227065   
      0.144670133057   0.143207470288   0.141759074968   0.140335565686   0.138946284845   
      0.137599288054   0.136301375494   0.135058157689   0.133874147368   0.132752869081   
      0.131696978798   0.130708386768   0.12978837816   0.128937727357   0.128156803078   
      0.127445662654   0.12680413472   0.126231890328   0.12572850302   0.125293498706   
      0.124926396384   0.124626740806   0.124394128134   0.124228225547   0.124128785613   