<?xml version="1.0"?>
<VTKFile type="ImageData" version="0.1" byte_order="LittleEndian">
  <ImageData WholeExtent="0 79 0 19 0 19" Origin="0 0 0" Spacing="1 1 1">
  <Piece Extent="0 79 0 19 0 19">
    <PointData Scalars="density">
       <DataArray type="Float32" Name="reddensity" NumberOfComponents="1" format="ascii">
      0   0   0   0   0   
      0   0   0   0   0   
      0   0   0   0   0   
      0   0   0   0   0   
      0   0   0   0   0   
      0   0   0   0   0   
      0   0   0   0   0   
      0   0   0   0   0   
      0   0   0   0   0   
      0   0   0   0   0   
      0   0   0   0   0   
      0   0   0   0   0   
      0   0   0   0   0   
      0   0   0   0   0   
      0   0   0   0   0   
      0   0   0   0   0   
      0   0   0   0   0   
      0   0   0   0   0   
      0   0   0   0   0   
      0   0   0   0   0   
      0   0   0   0   0   
      0   0   0   0   0   
      0   0   0   0   0   
      0   0   0   0   0   
      0   0   0   0   0   
      0   0   0   0   0   
      0   0   0   0   0   
      0   0   0   0   0   
      0   0   0   0   0   
      0   0   0   0   0   
      0   0   0   0   0   
      0   0   0   0   0   
      0   0   0   0   0   
      0   0   0   0   0   
      0   0   0   0   0   
      0   0   0   0   0   
      0   0   0   0   0   
      0   0   0   0   0   
      0   0   0   0   0   
      0   0   0   0   0   
      0   0   0   0   0   
      0   0   0   0   0   
      0   0   0   0   0   
      0   0   0   0   0   
      0   0   0   0   0   
      0   0   0   0   0   
      0   0   0   0   0   
      0   0   0   0   0   
      0   0   0   0   0   
      0   0   0   0   0   
      0   0   0   0   0   
      0   0   0   0   0   
      0   0   0   0   0   
      0   0   0   0   0   
      0   0   0   0   0   
      0   0   0   0   0   
      0   0   0   0   0   
      0   0   0   0   0   
      0   0   0   0   0   
      0   0   0   0   0   
      0   0   0   0   0   
      0   0   0   0   0   
      0   0   0   0   0   
      0   0   0   0   0   
      0   0   0   0   0   
      0   0   0   0   0   
      0   0   0   0   0   
      0   0   0   0   0   
      0   0   0   0   0   
      0   0   0   0   0   
      0   0   0   0   0   
      0   0   0   0   0   
      0   0   0   0   0   
      0   0   0   0   0   
      0   0   0   0   0   
      0   0   0   0   0   
      0   0   0   0   0   
      0   0   0   0   0   
      0   0   0   0   0   
      0   0   0   0   0   
      0   0   0   0   0   
      0   0   0   0   0   
      0   0   0   0   0   
      0   0   0   0   0   
      0   0   0   0   0   
      0   0   0   0   0   
      0   0   0   0   0   
      0   0   0   0   0   
      0   0   0   0   0   
      0   0   0   0   0   
      0   0   0   0   0   
      0   0   0   0   0   
      0   0   0   0   0   
      0   0   0   0   0   
      0   0   0   0   0   
      0   0   0   0   0   
      0   0   0   0   0   
      0   0   0   0   0   
      0   0   0   0   0   
      0   0   0   0   0   
      0   0   0   0   0   
      0   0   0   0   0   
      0   0   0   0   0   
      0   0   0   0   0   
      0   0   0   0   0   
      0   0   0   0   0   
      0   0   0   0   0   
      0   0   0   0   0   
      0   0   0   0   0   
      0   0   0   0   0   
      0   0   0   0   0   
      0   0   0   0   0   
      0   0   0   0   0   
      0   0   0   0   0   
      0   0   0   0   0   
      0   0   0   0   0   
      0   0   0   0   0   
      0   0   0   0   0   
      0   0   0   0   0   
      0   0   0   0   0   
      0   0   0   0   0   
      0   0   0   0   0   
      0   0   0   0   0   
      0   0   0   0   0   
      0   0   0   0   0   
      0   0   0   0   0   
      0   0   0   0   0   
      0   0   0   0   0   
      0   0   0   0   0   
      0   0   0   0   0   
      0   0   0   0   0   
      0   0   0   0   0   
      0   0   0   0   0   
      0   0   0   0   0   
      0   0   0   0   0   
      0   0   0   0   0   
      0   0   0   0   0   
      0   0   0   0   0   
      0   0   0   0   0   
      0   0   0   0   0   
      0   0   0   0   0   
      0   0   0   0   0   
      0   0   0   0   0   
      0   0   0   0   0   
      0   0   0   0   0   
      0   0   0   0   0   
      0   0   0   0   0   
      0   0   0   0   0   
      0   0   0   0   0   
      0   0   0   0   0   
      0   0   0   0   0   
      0   0   0   0   0   
      0   0   0   0   0   
      0   0   0   0   0   
      0   0   0   0   0   
      0   0   0   0   0   
      0   0   0   0   0   
      0   0   0   0   0   
      0   0   0   0   0   
      0   0   0   0   0   
      0   0   0   0   0   
      0   0   0   0   0   
      0   0   0   0   0   
      0   0   0   0   0   
      0   0   0   0   0   
      0   0   0   0   0   
      0   0   0   0   0   
      0   0   0   0   0   
      0   0   0   0   0   
      0   0   0   0   0   
      0   0   0   0   0   
      0   0   0   0   0   
      0   0   0   0   0   
      0   0   0   0   0   
      0   0   0   0   0   
      0   0   0   0   0   
      0   0   0   0   0   
      0   0   0   0   0   
      0   0   0   0   0   
      0   0   0   0   0   
      0   0   0   0   0   
      0   0   0   0   0   
      0   0   0   0   0   
      0   0   0   0   0   
      0   0   0   0   0   
      0   0   0   0   0   
      0   0   0   0   0   
      0   0   0   0   0   
      0   0   0   0   0   
      0   0   0   0   0   
      0   0   0   0   0   
      0   0   0   0   0   
      0   0   0   0   0   
      0   0   0   0   0   
      0   0   0   0   0   
      0   0   0   0   0   
      0   0   0   0   0   
      0   0   0   0   0   
      0   0   0   0   0   
      0   0   0   0   0   
      0   0   0   0   0   
      0   0   0   0   0   
      0   0   0   0   0   
      0   0   0   0   0   
      0   0   0   0   0   
      0   0   0   0   0   
      0   0   0   0   0   
      0   0   0   0   0   
      0   0   0   0   0   
      0   0   0   0   0   
      0   0   0   0   0   
      0   0   0   0   0   
      0   0   0   0   0   
      0   0   0   0   0   
      0   0   0   0   0   
      0   0   0   0   0   
      0   0   0   0   0   
      0   0   0   0   0   
      0   0   0   0   0   
      0   0   0   0   0   
      0   0   0   0   0   
      0   0   0   0   0   
      0   0   0   0   0   
      0   0   0   0   0   
      0   0   0   0   0   
      0   0   0   0   0   
      0   0   0   0   0   
      0   0   0   0   0   
      0   0   0   0   0   
      0   0   0   0   0   
      0   0   0   0   0   
      0   0   0   0   0   
      0   0   0   0   0   
      0   0   0   0   0   
      0   0   0   0   0   
      0   0   0   0   0   
      0   0   0   0   0   
      0   0   0   0   0   
      0   0   0   0   0   
      0   0   0   0   0   
      0   0   0   0   0   
      0   0   0   0   0   
      0   0   0   0   0   
      0   0   0   0   0   
      0   0   0   0   0   
      0   0   0   0   0   
      0   0   0   0   0   
      0   0   0   0   0   
      0   0   0   0   0   
      0   0   0   0   0   
      0   0   0   0   0   
      0   0   0   0   0   
      0   0   0   0   0   
      0   0   0   0   0   
      0   0   0   0   0   
      0   0   0   0   0   
      0   0   0   0   0   
      0   0   0   0   0   
      0   0   0   0   0   
      0   0   0   0   0   
      0   0   0   0   0   
      0   0   0   0   0   
      0   0   0   0   0   
      0   0   0   0   0   
      0   0   0   0   0   
      0   0   0   0   0   
      0   0   0   0   0   
      0   0   0   0   0   
      0   0   0   0   0   
      0   0   0   0   0   
      0   0   0   0   0   
      0   0   0   0   0   
      0   0   0   0   0   
      0   0   0   0   0   
      0   0   0   0   0   
      0   0   0   0   0   
      0   0   0   0   0   
      0   0   0   0   0   
      0   0   0   0   0   
      0   0   0   0   0   
      0   0   0   0   0   
      0   0   0   0   0   
      0   0   0   0   0   
      0   0   0   0   0   
      0   0   0   0   0   
      0   0   0   0   0   
      0   0   0   0   0   
      0   0   0   0   0   
      0   0   0   0   0   
      0   0   0   0   0   
      0   0   0   0   0   
      0   0   0   0   0   
      0   0   0   0   0   
      0   0   0   0   0   
      0   0   0   0   0   
      0   0   0   0   0   
      0   0   0   0   0   
      0   0   0   0   0   
      0   0   0   0   0   
      0   0   0   0   0   
      0   0   0   0   0   
      0   0   0   0   0   
      0   0   0   0   0   
      0   0   0   0   0   
      0   0   0   0   0   
      0   0   0   0   0   
      0   0   0   0   0   
      0   0   0   0   0   
      0   0   0   0   0   
      0   0   0   0   0   
      0   0   0   0   0   
      0   0   0   0   0   
      0   0   0   0   0   
      0   0   0   0   0   
      0   0   0   0   0   
      0   0   0   0   0   
      0   0   0   0   0   
      0   0   0   0   0   
      0   0   0   0   0   
      0   0   0   0   0   
      0   0   0   0   0   
      0   0   0   0   0   
      0   0   0   0   0   
      0   0   0   0   0   
      0   0   0   0   0   
      0   0   0   0   0   
      0   0   0   0   0   
      0   0   0   0   0   
      0   0   0   0   0   
      0   0   0   0   0   
      0   0   0   0   0   
      0   0   0   0   0   
      0   0   0   0   0   
      0   0   0   0   0   
      0   0   0   0   0   
      0   0   0   0   0   
      0.0838722428212   0.0838765778818   0.0838895728272   0.0839111967648   0.0839413975961   
      0.083980101104   0.0840272096798   0.0840826006989   0.0841461245561   0.0842176023777   
      0.0842968234349   0.0843835422941   0.0844774757476   0.0845782995863   0.084685645288   
      0.0847990967159   0.0849181869358   0.0850423952855   0.0851711448425   0.0853038004567   
      0.0854396675257   0.0855779916989   0.0857179596988   0.0858587014382   0.0859992935993   
      0.086138764808   0.0862761025021   0.0864102615379   0.0865401745236   0.0866647637938   
      0.0867829548713   0.0868936911807   0.086995949708   0.0870887572314   0.0871712066927   
      0.0872424732389   0.0873018294395   0.0873486591896   0.0873824698277   0.087402902047   
      0.0874097372454   0.087402902047   0.0873824698277   0.0873486591896   0.0873018294395   
      0.0872424732389   0.0871712066927   0.0870887572314   0.086995949708   0.0868936911807   
      0.0867829548713   0.0866647637938   0.0865401745236   0.0864102615379   0.0862761025021   
      0.086138764808   0.0859992935993   0.0858587014382   0.0857179596988   0.0855779916989   
      0.0854396675257   0.0853038004567   0.0851711448425   0.0850423952855   0.0849181869358   
      0.0847990967159   0.084685645288   0.0845782995863   0.0844774757476   0.0843835422941   
      0.0842968234349   0.0842176023777   0.0841461245561   0.0840826006989   0.0840272096798   
      0.083980101104   0.0839413975961   0.0839111967648   0.0838895728272   0.0838765778818   
      0.0925278577023   0.092534068415   0.0925526864223   0.092583669056   0.0926269442844   
      0.0926824093401   0.0927499288071   0.0928293321803   0.0929204109141   0.0930229149871   
      0.0931365490195   0.0932609679955   0.0933957726606   0.0935405046799   0.0936946416741   
      0.0938575922672   0.0940286913157   0.0942071955081   0.0943922795589   0.0945830332382   
      0.0947784594993   0.094977473979   0.0951789061425   0.0953815023367   0.0955839309881   
      0.0957847901389   0.0959826174588   0.0961759027939   0.0963631032252   0.0965426605117   
      0.0967130206809   0.0968726554247   0.0970200848478   0.0971539010245   0.0972727917367   
      0.0973755637121   0.097461164651   0.0975287033347   0.0975774671403   0.0976069363585   
      0.0976167948073   0.0976069363585   0.0975774671403   0.0975287033347   0.097461164651   
      0.0973755637121   0.0972727917367   0.0971539010245   0.0970200848478   0.0968726554247   
      0.0967130206809   0.0965426605117   0.0963631032252   0.0961759027939   0.0959826174588   
      0.0957847901389   0.0955839309881   0.0953815023367   0.0951789061425   0.094977473979   
      0.0947784594993   0.0945830332382   0.0943922795589   0.0942071955081   0.0940286913157   
      0.0938575922672   0.0936946416741   0.0935405046799   0.0933957726606   0.0932609679955   
      0.0931365490195   0.0930229149871   0.0929204109141   0.0928293321803   0.0927499288071   
      0.0926824093401   0.0926269442844   0.092583669056   0.0925526864223   0.092534068415   
      0.107404365543   0.107414501273   0.107444886149   0.107495452765   0.107566087198   
      0.107656626647   0.107766856154   0.107896504413   0.108045238706   0.108212659021   
      0.108398291407   0.10860158067   0.108821882519   0.10905845533   0.109310451714   
      0.109576910136   0.109856746864   0.110148748574   0.110451565998   0.110763709009   
      0.111083543586   0.111409291117   0.111739030481   0.112070703328   0.112402122951   
      0.11273098703   0.113054894456   0.113371366314   0.113677870939   0.113971852817   
      0.11425076491   0.114512103828   0.114753447081   0.114972491528   0.115167091995   
      0.115335298969   0.115475394231   0.115585923306   0.115665723679   0.115713947813   
      0.115730080197   0.115713947813   0.115665723679   0.115585923306   0.115475394231   
      0.115335298969   0.115167091995   0.114972491528   0.114753447081   0.114512103828   
      0.11425076491   0.113971852817   0.113677870939   0.113371366314   0.113054894456   
      0.11273098703   0.112402122951   0.112070703328   0.111739030481   0.111409291117   
      0.111083543586   0.110763709009   0.110451565998   0.110148748574   0.109856746864   
      0.109576910136   0.109310451714   0.10905845533   0.108821882519   0.10860158067   
      0.108398291407   0.108212659021   0.108045238706   0.107896504413   0.107766856154   
      0.107656626647   0.107566087198   0.107495452765   0.107444886149   0.107414501273   
      0.119813149688   0.119827524054   0.11987061556   0.11994232873   0.120042502122   
      0.120170904862   0.120327231828   0.120511097515   0.120722028641   0.120959455558   
      0.121222702602   0.121510977501   0.121823360045   0.122158790261   0.122516056386   
      0.122893782995   0.123290419716   0.123704231015   0.124133287586   0.124575459949   
      0.125028414859   0.125489615165   0.125956323725   0.126425611945   0.126894373411   
      0.127359342989   0.127817121596   0.128264206664   0.128697028126   0.129111989499   
      0.129505513441   0.129874090899   0.130214332792   0.130523022969   0.130797171062   
      0.131034063777   0.131231313123   0.131386900142   0.131499212764   0.13156707661   
      0.131589777742   0.13156707661   0.131499212764   0.131386900142   0.131231313123   
      0.131034063777   0.130797171062   0.130523022969   0.130214332792   0.129874090899   
      0.129505513441   0.129111989499   0.128697028126   0.128264206664   0.127817121596   
      0.127359342989   0.126894373411   0.126425611945   0.125956323725   0.125489615165   
      0.125028414859   0.124575459949   0.124133287586   0.123704231015   0.123290419716   
      0.122893782995   0.122516056386   0.122158790261   0.121823360045   0.121510977501   
      0.121222702602   0.120959455558   0.120722028641   0.120511097515   0.120327231828   
      0.120170904862   0.120042502122   0.11994232873   0.11987061556   0.119827524054   
      0.131470412668   0.13148903004   0.131544840397   0.131637717536   0.131767448042   
      0.131933726693   0.132136150082   0.132374208507   0.132647276222   0.132954600159   
      0.133295287291   0.133668290846   0.134072395643   0.134506202895   0.1349681149   
      0.135456320104   0.135968779125   0.136503212375   0.137057090008   0.137627624931   
      0.138211769695   0.138806218003   0.13940741161   0.140011553222   0.140614625951   
      0.141212419657   0.141800564318   0.14237457035   0.142929875489   0.14346189762   
      0.14396609264   0.144438016201   0.144873387961   0.145268156806   0.145618565363   
      0.145921212106   0.146173109342   0.14637173544   0.146515079813   0.146601679351   
      0.146630645235   0.146601679351   0.146515079813   0.14637173544   0.146173109342   
      0.145921212106   0.145618565363   0.145268156806   0.144873387961   0.144438016201   
      0.14396609264   0.14346189762   0.142929875489   0.14237457035   0.141800564318   
      0.141212419657   0.140614625951   0.140011553222   0.13940741161   0.138806218003   
      0.138211769695   0.137627624931   0.137057090008   0.136503212375   0.135968779125   
      0.135456320104   0.1349681149   0.134506202895   0.134072395643   0.133668290846   
      0.133295287291   0.132954600159   0.132647276222   0.132374208507   0.132136150082   
      0.131933726693   0.131767448042   0.131637717536   0.131544840397   0.13148903004   
      0.141555040942   0.141577340218   0.141644186292   0.141755422773   0.141910785262   
      0.142109895767   0.142352254961   0.14263723236   0.142964054559   0.14333179167   
      0.143739342203   0.14418541667   0.144668520274   0.145186935129   0.145738702556   
      0.146321606065   0.146933155763   0.147570574963   0.148230789858   0.148910423169   
      0.149605792646   0.150312915307   0.151027518195   0.151745056316   0.152460738232   
      0.153169559583   0.153866344532   0.154545794843   0.15520254602   0.155831229609   
      0.156426540518   0.156983307945   0.157496568309   0.157961638472   0.158374187428   
      0.158730304666   0.159026563441   0.159260077352   0.159428548741   0.159530307694   
      0.159564340617   0.159530307694   0.159428548741   0.159260077352   0.159026563441   
      0.158730304666   0.158374187428   0.157961638472   0.157496568309   0.156983307945   
      0.156426540518   0.155831229609   0.15520254602   0.154545794843   0.153866344532   
      0.153169559583   0.152460738232   0.151745056316   0.151027518195   0.150312915307   
      0.149605792646   0.148910423169   0.148230789858   0.147570574963   0.146933155763   
      0.146321606065   0.145738702556   0.145186935129   0.144668520274   0.14418541667   
      0.143739342203   0.14333179167   0.142964054559   0.14263723236   0.142352254961   
      0.142109895767   0.141910785262   0.141755422773   0.141644186292   0.141577340218   
      0.149482617584   0.14950774878   0.14958308187   0.149708434079   0.149883496516   
      0.150107827822   0.150380845387   0.150701814231   0.151069833719   0.151483822325   
      0.151942500712   0.152444373504   0.152987710183   0.153570525655   0.154190561121   
      0.154845266008   0.155531781772   0.156246928489   0.156987195205   0.157748735017   
      0.15852736586   0.159318577901   0.160117548316   0.160919164071   0.161718053099   
      0.162508623988   0.163285114016   0.164041645049   0.164772286482   0.165471124134   
      0.166132333725   0.16675025734   0.167319481178   0.167834912736   0.16829185563   
      0.168686080253   0.169013888624   0.169272171916   0.169458459348   0.169570957361   
      0.169608578209   0.169570957361   0.169458459348   0.169272171916   0.169013888624   
      0.168686080253   0.16829185563   0.167834912736   0.167319481178   0.16675025734   
      0.166132333725   0.165471124134   0.164772286482   0.164041645049   0.163285114016   
      0.162508623988   0.161718053099   0.160919164071   0.160117548316   0.159318577901   
      0.15852736586   0.157748735017   0.156987195205   0.156246928489   0.155531781772   
      0.154845266008   0.154190561121   0.153570525655   0.152987710183   0.152444373504   
      0.151942500712   0.151483822325   0.151069833719   0.150701814231   0.150380845387   
      0.150107827822   0.149883496516   0.149708434079   0.14958308187   0.14950774878   
      0.154877413082   0.154904419815   0.154985373042   0.155120070464   0.155308170308   
      0.155549184471   0.155842469052   0.156187212393   0.156582420828   0.157026902381   
      0.157519248754   0.158057815999   0.158640704403   0.15926573818   0.159930445694   
      0.160632041034   0.161367407846   0.162133086405   0.162925264956   0.163739776353   
      0.164572100997   0.165417376953   0.166270418026   0.167125740316   0.167977597562   
      0.168820025264   0.169646893268   0.170451966144   0.171228970395   0.17197166723   
      0.172673929387   0.173329820325   0.173933673994   0.174480173339   0.174964425764   
      0.175382033848   0.175729159772   0.176002582108   0.176199743808   0.176318790477   
      0.176358598209   0.176318790477   0.176199743808   0.176002582108   0.175729159772   
      0.175382033848   0.174964425764   0.174480173339   0.173933673994   0.173329820325   
      0.172673929387   0.17197166723   0.171228970395   0.170451966144   0.169646893268   
      0.168820025264   0.167977597562   0.167125740316   0.166270418026   0.165417376953   
      0.164572100997   0.163739776353   0.162925264956   0.162133086405   0.161367407846   
      0.160632041034   0.159930445694   0.15926573818   0.158640704403   0.158057815999   
      0.157519248754   0.157026902381   0.156582420828   0.156187212393   0.155842469052   
      0.155549184471   0.155308170308   0.155120070464   0.154985373042   0.154904419815   
      0.157592595279   0.157620526629   0.157704250269   0.157843553527   0.158038077175   
      0.158287308327   0.158590570638   0.158947011935   0.159355589509   0.159815053313   
      0.160323927435   0.16088049029   0.16148275406   0.162128444047   0.162814978678   
      0.163539451042   0.164298612881   0.165088862085   0.165906234714   0.166746402625   
      0.167604677683   0.168476023457   0.169355075125   0.170236168088   0.171113375517   
      0.171980554781   0.172831402301   0.173659516133   0.174458465168   0.175221863634   
      0.175943449309   0.176617163712   0.17723723247   0.177798244015   0.17829522488   
      0.17872370994   0.179079806144   0.17936024848   0.17956244711   0.179684524859   
      0.179725344423   0.179684524859   0.17956244711   0.17936024848   0.179079806144   
      0.17872370994   0.17829522488   0.177798244015   0.17723723247   0.176617163712   
      0.175943449309   0.175221863634   0.174458465168   0.173659516133   0.172831402301   
      0.171980554781   0.171113375517   0.170236168088   0.169355075125   0.168476023457   
      0.167604677683   0.166746402625   0.165906234714   0.165088862085   0.164298612881   
      0.163539451042   0.162814978678   0.162128444047   0.16148275406   0.16088049029   
      0.160323927435   0.159815053313   0.159355589509   0.158947011935   0.158590570638   
      0.158287308327   0.158038077175   0.157843553527   0.157704250269   0.157620526629   
      0.157592595279   0.157620526629   0.157704250269   0.157843553527   0.158038077175   
      0.158287308327   0.158590570638   0.158947011935   0.159355589509   0.159815053313   
      0.160323927435   0.16088049029   0.16148275406   0.162128444047   0.162814978678   
      0.163539451042   0.164298612881   0.165088862085   0.165906234714   0.166746402625   
      0.167604677683   0.168476023457   0.169355075125   0.170236168088   0.171113375517   
      0.171980554781   0.172831402301   0.173659516133   0.174458465168   0.175221863634   
      0.175943449309   0.176617163712   0.17723723247   0.177798244015   0.17829522488   
      0.17872370994   0.179079806144   0.17936024848   0.17956244711   0.179684524859   
      0.179725344423   0.179684524859   0.17956244711   0.17936024848   0.179079806144   
      0.17872370994   0.17829522488   0.177798244015   0.17723723247   0.176617163712   
      0.175943449309   0.175221863634   0.174458465168   0.173659516133   0.172831402301   
      0.171980554781   0.171113375517   0.170236168088   0.169355075125   0.168476023457   
      0.167604677683   0.166746402625   0.165906234714   0.165088862085   0.164298612881   
      0.163539451042   0.162814978678   0.162128444047   0.16148275406   0.16088049029   
      0.160323927435   0.159815053313   0.159355589509   0.158947011935   0.158590570638   
      0.158287308327   0.158038077175   0.157843553527   0.157704250269   0.157620526629   
      0.154877413082   0.154904419815   0.154985373042   0.155120070464   0.155308170308   
      0.155549184471   0.155842469052   0.156187212393   0.156582420828   0.157026902381   
      0.157519248754   0.158057815999   0.158640704403   0.15926573818   0.159930445694   
      0.160632041034   0.161367407846   0.162133086405   0.162925264956   0.163739776353   
      0.164572100997   0.165417376953   0.166270418026   0.167125740316   0.167977597562   
      0.168820025264   0.169646893268   0.170451966144   0.171228970395   0.17197166723   
      0.172673929387   0.173329820325   0.173933673994   0.174480173339   0.174964425764   
      0.175382033848   0.175729159772   0.176002582108   0.176199743808   0.176318790477   
      0.176358598209   0.176318790477   0.176199743808   0.176002582108   0.175729159772   
      0.175382033848   0.174964425764   0.174480173339   0.173933673994   0.173329820325   
      0.172673929387   0.17197166723   0.171228970395   0.170451966144   0.169646893268   
      0.168820025264   0.167977597562   0.167125740316   0.166270418026   0.165417376953   
      0.164572100997   0.163739776353   0.162925264956   0.162133086405   0.161367407846   
      0.160632041034   0.159930445694   0.15926573818   0.158640704403   0.158057815999   
      0.157519248754   0.157026902381   0.156582420828   0.156187212393   0.155842469052   
      0.155549184471   0.155308170308   0.155120070464   0.154985373042   0.154904419815   
      0.149482617584   0.14950774878   0.14958308187   0.149708434079   0.149883496516   
      0.150107827822   0.150380845387   0.150701814231   0.151069833719   0.151483822325   
      0.151942500712   0.152444373504   0.152987710183   0.153570525655   0.154190561121   
      0.154845266008   0.155531781772   0.156246928489   0.156987195205   0.157748735017   
      0.15852736586   0.159318577901   0.160117548316   0.160919164071   0.161718053099   
      0.162508623988   0.163285114016   0.164041645049   0.164772286482   0.165471124134   
      0.166132333725   0.16675025734   0.167319481178   0.167834912736   0.16829185563   
      0.168686080253   0.169013888624   0.169272171916   0.169458459348   0.169570957361   
      0.169608578209   0.169570957361   0.169458459348   0.169272171916   0.169013888624   
      0.168686080253   0.16829185563   0.167834912736   0.167319481178   0.16675025734   
      0.166132333725   0.165471124134   0.164772286482   0.164041645049   0.163285114016   
      0.162508623988   0.161718053099   0.160919164071   0.160117548316   0.159318577901   
      0.15852736586   0.157748735017   0.156987195205   0.156246928489   0.155531781772   
      0.154845266008   0.154190561121   0.153570525655   0.152987710183   0.152444373504   
      0.151942500712   0.151483822325   0.151069833719   0.150701814231   0.150380845387   
      0.150107827822   0.149883496516   0.149708434079   0.14958308187   0.14950774878   
      0.141555040942   0.141577340218   0.141644186292   0.141755422773   0.141910785262   
      0.142109895767   0.142352254961   0.14263723236   0.142964054559   0.14333179167   
      0.143739342203   0.14418541667   0.144668520274   0.145186935129   0.145738702556   
      0.146321606065   0.146933155763   0.147570574963   0.148230789858   0.148910423169   
      0.149605792646   0.150312915307   0.151027518195   0.151745056316   0.152460738232   
      0.153169559583   0.153866344532   0.154545794843   0.15520254602   0.155831229609   
      0.156426540518   0.156983307945   0.157496568309   0.157961638472   0.158374187428   
      0.158730304666   0.159026563441   0.159260077352   0.159428548741   0.159530307694   
      0.159564340617   0.159530307694   0.159428548741   0.159260077352   0.159026563441   
      0.158730304666   0.158374187428   0.157961638472   0.157496568309   0.156983307945   
      0.156426540518   0.155831229609   0.15520254602   0.154545794843   0.153866344532   
      0.153169559583   0.152460738232   0.151745056316   0.151027518195   0.150312915307   
      0.149605792646   0.148910423169   0.148230789858   0.147570574963   0.146933155763   
      0.146321606065   0.145738702556   0.145186935129   0.144668520274   0.14418541667   
      0.143739342203   0.14333179167   0.142964054559   0.14263723236   0.142352254961   
      0.142109895767   0.141910785262   0.141755422773   0.141644186292   0.141577340218   
      0.131470412668   0.13148903004   0.131544840397   0.131637717536   0.131767448042   
      0.131933726693   0.132136150082   0.132374208507   0.132647276222   0.132954600159   
      0.133295287291   0.133668290846   0.134072395643   0.134506202895   0.1349681149   
      0.135456320104   0.135968779125   0.136503212375   0.137057090008   0.137627624931   
      0.138211769695   0.138806218003   0.13940741161   0.140011553222   0.140614625951   
      0.141212419657   0.141800564318   0.14237457035   0.142929875489   0.14346189762   
      0.14396609264   0.144438016201   0.144873387961   0.145268156806   0.145618565363   
      0.145921212106   0.146173109342   0.14637173544   0.146515079813   0.146601679351   
      0.146630645235   0.146601679351   0.146515079813   0.14637173544   0.146173109342   
      0.145921212106   0.145618565363   0.145268156806   0.144873387961   0.144438016201   
      0.14396609264   0.14346189762   0.142929875489   0.14237457035   0.141800564318   
      0.141212419657   0.140614625951   0.140011553222   0.13940741161   0.138806218003   
      0.138211769695   0.137627624931   0.137057090008   0.136503212375   0.135968779125   
      0.135456320104   0.1349681149   0.134506202895   0.134072395643   0.133668290846   
      0.133295287291   0.132954600159   0.132647276222   0.132374208507   0.132136150082   