<?xml version="1.0"?>
<VTKFile type="ImageData" version="0.1" byte_order="LittleEndian">
  <ImageData WholeExtent="0 79 0 19 0 19" Origin="0 0 0" Spacing="1 1 1">
  <Piece Extent="0 79 0 19 0 19">
    <PointData Scalars="density">
       <DataArray type="Float32" Name="reddensity" NumberOfComponents="1" format="ascii">
      0   0   0   0   0   
      0   0   0   0   0   
      0   0   0   0   0   
      0   0   0   0   0   
      0   0   0   0   0   
      0   0   0   0   0   
      0   0   0   0   0   
      0   0   0   0   0   
      0   0   0   0   0   
      0   0   0   0   0   
      0   0   0   0   0   
      0   0   0   0   0   
      0   0   0   0   0   
      0   0   0   0   0   
      0   0   0   0   0   
      0   0   0   0   0   
      0   0   0   0   0   
      0   0   0   0   0   
      0   0   0   0   0   
      0   0   0   0   0   
      0   0   0   0   0   
      0   0   0   0   0   
      0   0   0   0   0   
      0   0   0   0   0   
      0   0   0   0   0   
      0   0   0   0   0   
      0   0   0   0   0   
      0   0   0   0   0   
      0   0   0   0   0   
      0   0   0   0   0   
      0   0   0   0   0   
      0   0   0   0   0   
      0   0   0   0   0   
      0   0   0   0   0   
      0   0   0   0   0   
      0   0   0   0   0   
      0   0   0   0   0   
      0   0   0   0   0   
      0   0   0   0   0   
      0   0   0   0   0   
      0   0   0   0   0   
      0   0   0   0   0   
      0   0   0   0   0   
      0   0   0   0   0   
      0   0   0   0   0   
      0   0   0   0   0   
      0   0   0   0   0   
      0   0   0   0   0   
      0   0   0   0   0   
      0   0   0   0   0   
      0   0   0   0   0   
      0   0   0   0   0   
      0   0   0   0   0   
      0   0   0   0   0   
      0   0   0   0   0   
      0   0   0   0   0   
      0   0   0   0   0   
      0   0   0   0   0   
      0   0   0   0   0   
      0   0   0   0   0   
      0   0   0   0   0   
      0   0   0   0   0   
      0   0   0   0   0   
      0   0   0   0   0   
      0   0   0   0   0   
      0   0   0   0   0   
      0   0   0   0   0   
      0   0   0   0   0   
      0   0   0   0   0   
      0   0   0   0   0   
      0   0   0   0   0   
      0   0   0   0   0   
      0   0   0   0   0   
      0   0   0   0   0   
      0   0   0   0   0   
      0   0   0   0   0   
      0   0   0   0   0   
      0   0   0   0   0   
      0   0   0   0   0   
      0   0   0   0   0   
      0   0   0   0   0   
      0   0   0   0   0   
      0   0   0   0   0   
      0   0   0   0   0   
      0   0   0   0   0   
      0   0   0   0   0   
      0   0   0   0   0   
      0   0   0   0   0   
      0   0   0   0   0   
      0   0   0   0   0   
      0   0   0   0   0   
      0   0   0   0   0   
      0   0   0   0   0   
      0   0   0   0   0   
      0   0   0   0   0   
      0   0   0   0   0   
      0   0   0   0   0   
      0   0   0   0   0   
      0   0   0   0   0   
      0   0   0   0   0   
      0   0   0   0   0   
      0   0   0   0   0   
      0   0   0   0   0   
      0   0   0   0   0   
      0   0   0   0   0   
      0   0   0   0   0   
      0   0   0   0   0   
      0   0   0   0   0   
      0   0   0   0   0   
      0   0   0   0   0   
      0   0   0   0   0   
      0   0   0   0   0   
      0   0   0   0   0   
      0   0   0   0   0   
      0   0   0   0   0   
      0   0   0   0   0   
      0   0   0   0   0   
      0   0   0   0   0   
      0   0   0   0   0   
      0   0   0   0   0   
      0   0   0   0   0   
      0   0   0   0   0   
      0   0   0   0   0   
      0   0   0   0   0   
      0   0   0   0   0   
      0   0   0   0   0   
      0   0   0   0   0   
      0   0   0   0   0   
      0   0   0   0   0   
      0   0   0   0   0   
      0   0   0   0   0   
      0   0   0   0   0   
      0   0   0   0   0   
      0   0   0   0   0   
      0   0   0   0   0   
      0   0   0   0   0   
      0   0   0   0   0   
      0   0   0   0   0   
      0   0   0   0   0   
      0   0   0   0   0   
      0   0   0   0   0   
      0   0   0   0   0   
      0   0   0   0   0   
      0   0   0   0   0   
      0   0   0   0   0   
      0   0   0   0   0   
      0   0   0   0   0   
      0   0   0   0   0   
      0   0   0   0   0   
      0   0   0   0   0   
      0   0   0   0   0   
      0   0   0   0   0   
      0   0   0   0   0   
      0   0   0   0   0   
      0   0   0   0   0   
      0   0   0   0   0   
      0   0   0   0   0   
      0   0   0   0   0   
      0   0   0   0   0   
      0   0   0   0   0   
      0   0   0   0   0   
      0   0   0   0   0   
      0   0   0   0   0   
      0   0   0   0   0   
      0   0   0   0   0   
      0   0   0   0   0   
      0   0   0   0   0   
      0   0   0   0   0   
      0   0   0   0   0   
      0   0   0   0   0   
      0   0   0   0   0   
      0   0   0   0   0   
      0   0   0   0   0   
      0   0   0   0   0   
      0   0   0   0   0   
      0   0   0   0   0   
      0   0   0   0   0   
      0   0   0   0   0   
      0   0   0   0   0   
      0   0   0   0   0   
      0   0   0   0   0   
      0   0   0   0   0   
      0   0   0   0   0   
      0   0   0   0   0   
      0   0   0   0   0   
      0   0   0   0   0   
      0   0   0   0   0   
      0   0   0   0   0   
      0   0   0   0   0   
      0   0   0   0   0   
      0   0   0   0   0   
      0   0   0   0   0   
      0   0   0   0   0   
      0   0   0   0   0   
      0   0   0   0   0   
      0   0   0   0   0   
      0   0   0   0   0   
      0   0   0   0   0   
      0   0   0   0   0   
      0   0   0   0   0   
      0   0   0   0   0   
      0   0   0   0   0   
      0   0   0   0   0   
      0   0   0   0   0   
      0   0   0   0   0   
      0   0   0   0   0   
      0   0   0   0   0   
      0   0   0   0   0   
      0   0   0   0   0   
      0   0   0   0   0   
      0   0   0   0   0   
      0   0   0   0   0   
      0   0   0   0   0   
      0   0   0   0   0   
      0   0   0   0   0   
      0   0   0   0   0   
      0   0   0   0   0   
      0   0   0   0   0   
      0   0   0   0   0   
      0   0   0   0   0   
      0   0   0   0   0   
      0   0   0   0   0   
      0   0   0   0   0   
      0   0   0   0   0   
      0   0   0   0   0   
      0   0   0   0   0   
      0   0   0   0   0   
      0   0   0   0   0   
      0   0   0   0   0   
      0   0   0   0   0   
      0   0   0   0   0   
      0   0   0   0   0   
      0   0   0   0   0   
      0   0   0   0   0   
      0   0   0   0   0   
      0   0   0   0   0   
      0   0   0   0   0   
      0   0   0   0   0   
      0   0   0   0   0   
      0   0   0   0   0   
      0   0   0   0   0   
      0   0   0   0   0   
      0   0   0   0   0   
      0   0   0   0   0   
      0   0   0   0   0   
      0   0   0   0   0   
      0   0   0   0   0   
      0   0   0   0   0   
      0   0   0   0   0   
      0   0   0   0   0   
      0   0   0   0   0   
      0   0   0   0   0   
      0   0   0   0   0   
      0   0   0   0   0   
      0   0   0   0   0   
      0   0   0   0   0   
      0   0   0   0   0   
      0   0   0   0   0   
      0   0   0   0   0   
      0   0   0   0   0   
      0   0   0   0   0   
      0   0   0   0   0   
      0   0   0   0   0   
      0   0   0   0   0   
      0   0   0   0   0   
      0   0   0   0   0   
      0   0   0   0   0   
      0   0   0   0   0   
      0   0   0   0   0   
      0   0   0   0   0   
      0   0   0   0   0   
      0   0   0   0   0   
      0   0   0   0   0   
      0   0   0   0   0   
      0   0   0   0   0   
      0   0   0   0   0   
      0   0   0   0   0   
      0   0   0   0   0   
      0   0   0   0   0   
      0   0   0   0   0   
      0   0   0   0   0   
      0   0   0   0   0   
      0   0   0   0   0   
      0   0   0   0   0   
      0   0   0   0   0   
      0   0   0   0   0   
      0   0   0   0   0   
      0   0   0   0   0   
      0   0   0   0   0   
      0   0   0   0   0   
      0   0   0   0   0   
      0   0   0   0   0   
      0   0   0   0   0   
      0   0   0   0   0   
      0   0   0   0   0   
      0   0   0   0   0   
      0   0   0   0   0   
      0   0   0   0   0   
      0   0   0   0   0   
      0   0   0   0   0   
      0   0   0   0   0   
      0   0   0   0   0   
      0   0   0   0   0   
      0   0   0   0   0   
      0   0   0   0   0   
      0   0   0   0   0   
      0   0   0   0   0   
      0   0   0   0   0   
      0   0   0   0   0   
      0   0   0   0   0   
      0   0   0   0   0   
      0   0   0   0   0   
      0   0   0   0   0   
      0   0   0   0   0   
      0   0   0   0   0   
      0   0   0   0   0   
      0   0   0   0   0   
      0   0   0   0   0   
      0   0   0   0   0   
      0   0   0   0   0   
      0   0   0   0   0   
      0   0   0   0   0   
      0   0   0   0   0   
      0   0   0   0   0   
      0   0   0   0   0   
      0   0   0   0   0   
      0   0   0   0   0   
      0   0   0   0   0   
      0   0   0   0   0   
      0   0   0   0   0   
      0   0   0   0   0   
      0   0   0   0   0   
      0   0   0   0   0   
      0   0   0   0   0   
      0   0   0   0   0   
      0   0   0   0   0   
      0.0844910256218   0.0844938117825   0.0845021597176   0.0845160377273   0.0845353927821   
      0.0845601502336   0.0845902134215   0.0846254631884   0.0846657573169   0.0847109299098   
      0.0847607907356   0.0848151245671   0.0848736905446   0.0849362216002   0.0850024239822   
      0.0850719769243   0.085144532506   0.0852197157525   0.0852971250263   0.0853763327586   
      0.08545688657   0.0855383108246   0.085620108657   0.0857017645014   0.085782747144   
      0.0858625133055   0.085940511748   0.0860161878794   0.0860889888176   0.0861583688528   
      0.08622379523   0.0862847541584   0.0863407569354   0.086391346064   0.0864361012302   
      0.0864746450028   0.0865066481184   0.0865318342191   0.086549983917   0.0865609380787   
      0.0865646002394   0.0865609380787   0.086549983917   0.0865318342191   0.0865066481184   
      0.0864746450028   0.0864361012302   0.086391346064   0.0863407569354   0.0862847541584   
      0.08622379523   0.0861583688528   0.0860889888176   0.0860161878794   0.085940511748   
      0.0858625133055   0.085782747144   0.0857017645014   0.085620108657   0.0855383108246   
      0.08545688657   0.0853763327586   0.0852971250263   0.0852197157525   0.085144532506   
      0.0850719769243   0.0850024239822   0.0849362216002   0.0848736905446   0.0848151245671   
      0.0847607907356   0.0847109299098   0.0846657573169   0.0846254631884   0.0845902134215   
      0.0845601502336   0.0845353927821   0.0845160377273   0.0845021597176   0.0844938117825   
      0.0934194293296   0.0934234291529   0.0934354136645   0.0934553378986   0.0934831266139   
      0.0935186738529   0.0935618423438   0.0936124627604   0.0936703328638   0.0937352165548   
      0.0938068428704   0.0938849049669   0.0939690591353   0.094058923903   0.0941540792801   
      0.0942540662165   0.0943583863366   0.0944665020267   0.0945778369465   0.0946917770406   
      0.0948076721189   0.0949248380732   0.0950425597846   0.0951600947671   0.0952766775757   
      0.0953915249907   0.0955038419647   0.0956128282992   0.0957176859888   0.0958176271449   
      0.0959118823862   0.0959997095571   0.0960804026126   0.0961533004908   0.096217795782   
      0.0962733429931   0.0963194662094   0.0963557659603   0.0963819251098   0.0963977136156   
      0.0964029920255   0.0963977136156   0.0963819251098   0.0963557659603   0.0963194662094   
      0.0962733429931   0.096217795782   0.0961533004908   0.0960804026126   0.0959997095571   
      0.0959118823862   0.0958176271449   0.0957176859888   0.0956128282992   0.0955038419647   
      0.0953915249907   0.0952766775757   0.0951600947671   0.0950425597846   0.0949248380732   
      0.0948076721189   0.0946917770406   0.0945778369465   0.0944665020267   0.0943583863366   
      0.0942540662165   0.0941540792801   0.094058923903   0.0939690591353   0.0938849049669   
      0.0938068428704   0.0937352165548   0.0936703328638   0.0936124627604   0.0935618423438   
      0.0935186738529   0.0934831266139   0.0934553378986   0.0934354136645   0.0934234291529   
      0.108867567196   0.108874105992   0.108893698149   0.108926270816   0.10897170206   
      0.109029820108   0.109100402313   0.109183173883   0.109277806397   0.109383916173   
      0.109501062536   0.109628746061   0.10976640687   0.109913423074   0.110069109453   
      0.110232716502   0.110403429929   0.110580370762   0.11076259615   0.110949101019   
      0.111138820667   0.11133063442   0.111523370445   0.111715811774   0.111906703598   
      0.11209476184   0.112278682972   0.112457155043   0.112628869771   0.11279253559   
      0.112946891445   0.113090721093   0.113222867674   0.113342248233   0.113447867894   
      0.113538833355   0.113614365387   0.113673810023   0.113716648152   0.113742503259   
      0.113751147116   0.113742503259   0.113716648152   0.113673810023   0.113614365387   
      0.113538833355   0.113447867894   0.113342248233   0.113222867674   0.113090721093   
      0.112946891445   0.11279253559   0.112628869771   0.112457155043   0.112278682972   
      0.11209476184   0.111906703598   0.111715811774   0.111523370445   0.11133063442   
      0.111138820667   0.110949101019   0.11076259615   0.110580370762   0.110403429929   
      0.110232716502   0.110069109453   0.109913423074   0.10976640687   0.109628746061   
      0.109501062536   0.109383916173   0.109277806397   0.109183173883   0.109100402313   
      0.109029820108   0.10897170206   0.108926270816   0.108893698149   0.108874105992   
      0.121895755756   0.12190502886   0.121932813691   0.12197900658   0.122043434003   
      0.122125851488   0.122225942128   0.12234331475   0.12247750179   0.122627956956   
      0.122794052762   0.122975078031   0.123170235499   0.123378639633   0.123599314825   
      0.12383119411   0.124073118575   0.124323837633   0.124582010336   0.124846207898   
      0.12511491758   0.125386548092   0.125659436632   0.125931857629   0.126202033281   
      0.12646814585   0.1267283517   0.126980796964   0.127223634677   0.127455043171   
      0.127673245451   0.127876529221   0.128063267202   0.128231937331   0.12838114241   
      0.12850962877   0.128616303514   0.128700249917   0.12876074061   0.128797248205   
      0.128809453094   0.128797248205   0.12876074061   0.128700249917   0.128616303514   
      0.12850962877   0.12838114241   0.128231937331   0.128063267202   0.127876529221   
      0.127673245451   0.127455043171   0.127223634677   0.126980796964   0.1267283517   
      0.12646814585   0.126202033281   0.125931857629   0.125659436632   0.125386548092   
      0.12511491758   0.124846207898   0.124582010336   0.124323837633   0.124073118575   
      0.12383119411   0.123599314825   0.123378639633   0.123170235499   0.122975078031   
      0.122794052762   0.122627956956   0.12247750179   0.12234331475   0.122225942128   
      0.122125851488   0.122043434003   0.12197900658   0.121932813691   0.12190502886   
      0.13417356578   0.134185561463   0.134221503371   0.134281255796   0.134364591598   
      0.134471190811   0.13460063873   0.134752423579   0.134925933803   0.135120455111   
      0.135335167371   0.135569141504   0.135821336531   0.136090596946   0.136375650605   
      0.136675107343   0.136987458526   0.137311077757   0.137644222963   0.137985040062   
      0.138331568418   0.138681748243   0.139033430088   0.139384386515   0.139732326003   
      0.140074909052   0.140409766426   0.14073451937   0.141046801593   0.141344282715   
      0.141624692833   0.141885847784   0.142125674653   0.142342237005   0.142533759344   
      0.14269865025   0.142835523679   0.142943217943   0.143020811909   0.143067638029   
      0.143083291888   0.143067638029   0.143020811909   0.142943217943   0.142835523679   
      0.14269865025   0.142533759344   0.142342237005   0.142125674653   0.141885847784   
      0.141624692833   0.141344282715   0.141046801593   0.14073451937   0.140409766426   
      0.140074909052   0.139732326003   0.139384386515   0.139033430088   0.138681748243   
      0.138331568418   0.137985040062   0.137644222963   0.137311077757   0.136987458526   
      0.136675107343   0.136375650605   0.136090596946   0.135821336531   0.135569141504   
      0.135335167371   0.135120455111   0.134925933803   0.134752423579   0.13460063873   
      0.134471190811   0.134364591598   0.134281255796   0.134221503371   0.134185561463   
      0.14479627387   0.144810612711   0.144853574337   0.144924993721   0.145024594702   
      0.145151988352   0.145306670766   0.145488020349   0.145695294711   0.145927627276   
      0.146184023773   0.146463358757   0.146764372372   0.147085667553   0.147425707909   
      0.147782816518   0.148155175901   0.148540829422   0.148937684363   0.14934351692   
      0.149755979324   0.150172609274   0.150590841815   0.151008023748   0.15142143059   
      0.151828286039   0.152225783814   0.152611111677   0.152981477344   0.153334135948   
      0.153666418614   0.153975761669   0.154259735962   0.15451607573   0.15474270642   
      0.154937770905   0.155099653526   0.155227001429   0.155318742726   0.155374101075   
      0.155392606338   0.155374101075   0.155318742726   0.155227001429   0.155099653526   
      0.154937770905   0.15474270642   0.15451607573   0.154259735962   0.153975761669   
      0.153666418614   0.153334135948   0.152981477344   0.152611111677   0.152225783814   
      0.151828286039   0.15142143059   0.151008023748   0.150590841815   0.150172609274   
      0.149755979324   0.14934351692   0.148937684363   0.148540829422   0.148155175901   
      0.147782816518   0.147425707909   0.147085667553   0.146764372372   0.146463358757   
      0.146184023773   0.145927627276   0.145695294711   0.145488020349   0.145306670766   
      0.145151988352   0.145024594702   0.144924993721   0.144853574337   0.144810612711   
      0.153136951217   0.153153074911   0.153201383147   0.153281687019   0.15339367047   
      0.153536888516   0.153710764847   0.153914588906   0.154147512548   0.154408546433   
      0.154696556327   0.155010259492   0.155348221403   0.155708853015   0.156090408858   
      0.156490986218   0.156908525687   0.157340813365   0.157785484979   0.158240032167   
      0.158701811144   0.159168053935   0.159635882291   0.160102324358   0.160564334083   
      0.16101881328   0.161462636183   0.161892676236   0.162305834797   0.162699071337   
      0.163069434682   0.163414094746   0.163730374213   0.16401577956   0.164268030821   
      0.164485089501   0.164665184081   0.164806832572   0.164908861655   0.164970422013   
      0.164990999512   0.164970422013   0.164908861655   0.164806832572   0.164665184081   
      0.164485089501   0.164268030821   0.16401577956   0.163730374213   0.163414094746   
      0.163069434682   0.162699071337   0.162305834797   0.161892676236   0.161462636183   
      0.16101881328   0.160564334083   0.160102324358   0.159635882291   0.159168053935   
      0.158701811144   0.158240032167   0.157785484979   0.157340813365   0.156908525687   
      0.156490986218   0.156090408858   0.155708853015   0.155348221403   0.155010259492   
      0.154696556327   0.154408546433   0.154147512548   0.153914588906   0.153710764847   
      0.153536888516   0.15339367047   0.153281687019   0.153201383147   0.153153074911   
      0.158804716346   0.158822010909   0.158873826205   0.15895995667   0.159080058432   
      0.159233647467   0.15942009711   0.159638635037   0.159888339828   0.160168137293   
      0.160476796718   0.160812927279   0.161174974833   0.16156121936   0.16196977334   
      0.162398581333   0.162845421087   0.163307906432   0.16378349226   0.164269481832   
      0.164763036624   0.165261188899   0.165760857083   0.166258864019   0.166751958043   
      0.167236836775   0.167710173415   0.168168645276   0.168608964162   0.169027908179   
      0.169422354463   0.169789312281   0.170125955912   0.170429656725   0.170698013822   
      0.170928882692   0.171120401283   0.171271013016   0.171379486252   0.171444929867   
      0.171466804581   0.171444929867   0.171379486252   0.171271013016   0.171120401283   
      0.170928882692   0.170698013822   0.170429656725   0.170125955912   0.169789312281   
      0.169422354463   0.169027908179   0.168608964162   0.168168645276   0.167710173415   
      0.167236836775   0.166751958043   0.166258864019   0.165760857083   0.165261188899   
      0.164763036624   0.164269481832   0.16378349226   0.163307906432   0.162845421087   
      0.162398581333   0.16196977334   0.16156121936   0.161174974833   0.160812927279   
      0.160476796718   0.160168137293   0.159888339828   0.159638635037   0.15942009711   
      0.159233647467   0.159080058432   0.15895995667   0.158873826205   0.158822010909   
      0.161654219318   0.161672087034   0.161725618951   0.161814600988   0.161938675063   
      0.162097337215   0.162289935094   0.162515664903   0.162773567944   0.163062526924   
      0.16338126222   0.163728328332   0.164102110749   0.164500823533   0.164922507876   
      0.165365031942   0.165826092295   0.166303217205   0.16679377211   0.167294967481   
      0.167803869317   0.168317412406   0.168832416478   0.169345605262   0.169853628398   
      0.170353086079   0.170840556187   0.171312623641   0.17176591155   0.172197113737   
      0.172603028104   0.172980590292   0.173326907041   0.173639288641   0.173915279881   
      0.174152688919   0.174349613517   0.174504464139   0.174615983492   0.174683262111   
      0.174705749717   0.174683262111   0.174615983492   0.174504464139   0.174349613517   
      0.174152688919   0.173915279881   0.173639288641   0.173326907041   0.172980590292   
      0.172603028104   0.172197113737   0.17176591155   0.171312623641   0.170840556187   
      0.170353086079   0.169853628398   0.169345605262   0.168832416478   0.168317412406   
      0.167803869317   0.167294967481   0.16679377211   0.166303217205   0.165826092295   
      0.165365031942   0.164922507876   0.164500823533   0.164102110749   0.163728328332   
      0.16338126222   0.163062526924   0.162773567944   0.162515664903   0.162289935094   
      0.162097337215   0.161938675063   0.161814600988   0.161725618951   0.161672087034   
      0.161654219318   0.161672087034   0.161725618951   0.161814600988   0.161938675063   
      0.162097337215   0.162289935094   0.162515664903   0.162773567944   0.163062526924   
      0.16338126222   0.163728328332   0.164102110749   0.164500823533   0.164922507876   
      0.165365031942   0.165826092295   0.166303217205   0.16679377211   0.167294967481   
      0.167803869317   0.168317412406   0.168832416478   0.169345605262   0.169853628398   
      0.170353086079   0.170840556187   0.171312623641   0.17176591155   0.172197113737   
      0.172603028104   0.172980590292   0.173326907041   0.173639288641   0.173915279881   
      0.174152688919   0.174349613517   0.174504464139   0.174615983492   0.174683262111   
      0.174705749717   0.174683262111   0.174615983492   0.174504464139   0.174349613517   
      0.174152688919   0.173915279881   0.173639288641   0.173326907041   0.172980590292   
      0.172603028104   0.172197113737   0.17176591155   0.171312623641   0.170840556187   
      0.170353086079   0.169853628398   0.169345605262   0.168832416478   0.168317412406   
      0.167803869317   0.167294967481   0.16679377211   0.166303217205   0.165826092295   
      0.165365031942   0.164922507876   0.164500823533   0.164102110749   0.163728328332   
      0.16338126222   0.163062526924   0.162773567944   0.162515664903   0.162289935094   
      0.162097337215   0.161938675063   0.161814600988   0.161725618951   0.161672087034   
      0.158804716346   0.158822010909   0.158873826205   0.15895995667   0.159080058432   
      0.159233647467   0.15942009711   0.159638635037   0.159888339828   0.160168137293   
      0.160476796718   0.160812927279   0.161174974833   0.16156121936   0.16196977334   
      0.162398581333   0.162845421087   0.163307906432   0.16378349226   0.164269481832   
      0.164763036624   0.165261188899   0.165760857083   0.166258864019   0.166751958043   
      0.167236836775   0.167710173415   0.168168645276   0.168608964162   0.169027908179   
      0.169422354463   0.169789312281   0.170125955912   0.170429656725   0.170698013822   
      0.170928882692   0.171120401283   0.171271013016   0.171379486252   0.171444929867   
      0.171466804581   0.171444929867   0.171379486252   0.171271013016   0.171120401283   
      0.170928882692   0.170698013822   0.170429656725   0.170125955912   0.169789312281   
      0.169422354463   0.169027908179   0.168608964162   0.168168645276   0.167710173415   
      0.167236836775   0.166751958043   0.166258864019   0.165760857083   0.165261188899   
      0.164763036624   0.164269481832   0.16378349226   0.163307906432   0.162845421087   
      0.162398581333   0.16196977334   0.16156121936   0.161174974833   0.160812927279   
      0.160476796718   0.160168137293   0.159888339828   0.159638635037   0.15942009711   
      0.159233647467   0.159080058432   0.15895995667   0.158873826205   0.158822010909   
      0.153136951217   0.153153074911   0.153201383147   0.153281687019   0.15339367047   
      0.153536888516   0.153710764847   0.153914588906   0.154147512548   0.154408546433   
      0.154696556327   0.155010259492   0.155348221403   0.155708853015   0.156090408858   
      0.156490986218   0.156908525687   0.157340813365   0.157785484979   0.158240032167   
      0.158701811144   0.159168053935   0.159635882291   0.160102324358   0.160564334083   
      0.16101881328   0.161462636183   0.161892676236   0.162305834797   0.162699071337   
      0.163069434682   0.163414094746   0.163730374213   0.16401577956   0.164268030821   
      0.164485089501   0.164665184081   0.164806832572   0.164908861655   0.164970422013   
      0.164990999512   0.164970422013   0.164908861655   0.164806832572   0.164665184081   
      0.164485089501   0.164268030821   0.16401577956   0.163730374213   0.163414094746   
      0.163069434682   0.162699071337   0.162305834797   0.161892676236   0.161462636183   
      0.16101881328   0.160564334083   0.160102324358   0.159635882291   0.159168053935   
      0.158701811144   0.158240032167   0.157785484979   0.157340813365   0.156908525687   
      0.156490986218   0.156090408858   0.155708853015   0.155348221403   0.155010259492   
      0.154696556327   0.154408546433   0.154147512548   0.153914588906   0.153710764847   
      0.153536888516   0.15339367047   0.153281687019   0.153201383147   0.153153074911   
      0.14479627387   0.144810612711   0.144853574337   0.144924993721   0.145024594702   
      0.145151988352   0.145306670766   0.145488020349   0.145695294711   0.145927627276   
      0.146184023773   0.146463358757   0.146764372372   0.147085667553   0.147425707909   
      0.147782816518   0.148155175901   0.148540829422   0.148937684363   0.14934351692   
      0.149755979324   0.150172609274   0.150590841815   0.151008023748   0.15142143059   
      0.151828286039   0.152225783814   0.152611111677   0.152981477344   0.153334135948   
      0.153666418614   0.153975761669   0.154259735962   0.15451607573   0.15474270642   
      0.154937770905   0.155099653526   0.155227001429   0.155318742726   0.155374101075   
      0.155392606338   0.155374101075   0.155318742726   0.155227001429   0.155099653526   
      0.154937770905   0.15474270642   0.15451607573   0.154259735962   0.153975761669   
      0.153666418614   0.153334135948   0.152981477344   0.152611111677   0.152225783814   
      0.151828286039   0.15142143059   0.151008023748   0.150590841815   0.150172609274   
      0.149755979324   0.14934351692   0.148937684363   0.148540829422   0.148155175901   
      0.147782816518   0.147425707909   0.147085667553   0.146764372372   0.146463358757   
      0.146184023773   0.145927627276   0.145695294711   0.145488020349   0.145306670766   
      0.145151988352   0.145024594702   0.144924993721   0.144853574337   0.144810612711   
      0.13417356578   0.134185561463   0.134221503371   0.134281255796   0.134364591598   
      0.134471190811   0.13460063873   0.134752423579   0.134925933803   0.135120455111   
      0.135335167371   0.135569141504   0.135821336531   0.136090596946   0.136375650605   
      0.136675107343   0.136987458526   0.137311077757   0.137644222963   0.137985040062   
      0.138331568418   0.138681748243   0.139033430088   0.139384386515   0.139732326003   
      0.140074909052   0.140409766426   0.14073451937   0.141046801593   0.141344282715   
      0.141624692833   0.141885847784   0.142125674653   0.142342237005   0.142533759344   
      0.14269865025   0.142835523679   0.142943217943   0.143020811909   0.143067638029   
      0.143083291888   0.143067638029   0.143020811909   0.142943217943   0.142835523679   
      0.14269865025   0.142533759344   0.142342237005   0.142125674653   0.141885847784   
      0.141624692833   0.141344282715   0.141046801593   0.14073451937   0.140409766426   
      0.140074909052   0.139732326003   0.139384386515   0.139033430088   0.138681748243   
      0.138331568418   0.137985040062   0.137644222963   0.137311077757   0.136987458526   
      0.136675107343   0.136375650605   0.136090596946   0.135821336531   0.135569141504   
      0.135335167371   0.135120455111   0.134925933803   0.134752423579   0.13460063873   