<?xml version="1.0"?>
<VTKFile type="ImageData" version="0.1" byte_order="LittleEndian">
  <ImageData WholeExtent="0 79 0 19 0 19" Origin="0 0 0" Spacing="1 1 1">
  <Piece Extent="0 79 0 19 0 19">
    <PointData Scalars="density">
       <DataArray type="Float32" Name="reddensity" NumberOfComponents="1" format="ascii">
      0   0   0   0   0   
      0   0   0   0   0   
      0   0   0   0   0   
      0   0   0   0   0   
      0   0   0   0   0   
      0   0   0   0   0   
      0   0   0   0   0   
      0   0   0   0   0   
      0   0   0   0   0   
      0   0   0   0   0   
      0   0   0   0   0   
      0   0   0   0   0   
      0   0   0   0   0   
      0   0   0   0   0   
      0   0   0   0   0   
      0   0   0   0   0   
      0   0   0   0   0   
      0   0   0   0   0   
      0   0   0   0   0   
      0   0   0   0   0   
      0   0   0   0   0   
      0   0   0   0   0   
      0   0   0   0   0   
      0   0   0   0   0   
      0   0   0   0   0   
      0   0   0   0   0   
      0   0   0   0   0   
      0   0   0   0   0   
      0   0   0   0   0   
      0   0   0   0   0   
      0   0   0   0   0   
      0   0   0   0   0   
      0   0   0   0   0   
      0   0   0   0   0   
      0   0   0   0   0   
      0   0   0   0   0   
      0   0   0   0   0   
      0   0   0   0   0   
      0   0   0   0   0   
      0   0   0   0   0   
      0   0   0   0   0   
      0   0   0   0   0   
      0   0   0   0   0   
      0   0   0   0   0   
      0   0   0   0   0   
      0   0   0   0   0   
      0   0   0   0   0   
      0   0   0   0   0   
      0   0   0   0   0   
      0   0   0   0   0   
      0   0   0   0   0   
      0   0   0   0   0   
      0   0   0   0   0   
      0   0   0   0   0   
      0   0   0   0   0   
      0   0   0   0   0   
      0   0   0   0   0   
      0   0   0   0   0   
      0   0   0   0   0   
      0   0   0   0   0   
      0   0   0   0   0   
      0   0   0   0   0   
      0   0   0   0   0   
      0   0   0   0   0   
      0   0   0   0   0   
      0   0   0   0   0   
      0   0   0   0   0   
      0   0   0   0   0   
      0   0   0   0   0   
      0   0   0   0   0   
      0   0   0   0   0   
      0   0   0   0   0   
      0   0   0   0   0   
      0   0   0   0   0   
      0   0   0   0   0   
      0   0   0   0   0   
      0   0   0   0   0   
      0   0   0   0   0   
      0   0   0   0   0   
      0   0   0   0   0   
      0   0   0   0   0   
      0   0   0   0   0   
      0   0   0   0   0   
      0   0   0   0   0   
      0   0   0   0   0   
      0   0   0   0   0   
      0   0   0   0   0   
      0   0   0   0   0   
      0   0   0   0   0   
      0   0   0   0   0   
      0   0   0   0   0   
      0   0   0   0   0   
      0   0   0   0   0   
      0   0   0   0   0   
      0   0   0   0   0   
      0   0   0   0   0   
      0   0   0   0   0   
      0   0   0   0   0   
      0   0   0   0   0   
      0   0   0   0   0   
      0   0   0   0   0   
      0   0   0   0   0   
      0   0   0   0   0   
      0   0   0   0   0   
      0   0   0   0   0   
      0   0   0   0   0   
      0   0   0   0   0   
      0   0   0   0   0   
      0   0   0   0   0   
      0   0   0   0   0   
      0   0   0   0   0   
      0   0   0   0   0   
      0   0   0   0   0   
      0   0   0   0   0   
      0   0   0   0   0   
      0   0   0   0   0   
      0   0   0   0   0   
      0   0   0   0   0   
      0   0   0   0   0   
      0   0   0   0   0   
      0   0   0   0   0   
      0   0   0   0   0   
      0   0   0   0   0   
      0   0   0   0   0   
      0   0   0   0   0   
      0   0   0   0   0   
      0   0   0   0   0   
      0   0   0   0   0   
      0   0   0   0   0   
      0   0   0   0   0   
      0   0   0   0   0   
      0   0   0   0   0   
      0   0   0   0   0   
      0   0   0   0   0   
      0   0   0   0   0   
      0   0   0   0   0   
      0   0   0   0   0   
      0   0   0   0   0   
      0   0   0   0   0   
      0   0   0   0   0   
      0   0   0   0   0   
      0   0   0   0   0   
      0   0   0   0   0   
      0   0   0   0   0   
      0   0   0   0   0   
      0   0   0   0   0   
      0   0   0   0   0   
      0   0   0   0   0   
      0   0   0   0   0   
      0   0   0   0   0   
      0   0   0   0   0   
      0   0   0   0   0   
      0   0   0   0   0   
      0   0   0   0   0   
      0   0   0   0   0   
      0   0   0   0   0   
      0   0   0   0   0   
      0   0   0   0   0   
      0   0   0   0   0   
      0   0   0   0   0   
      0   0   0   0   0   
      0   0   0   0   0   
      0   0   0   0   0   
      0   0   0   0   0   
      0   0   0   0   0   
      0   0   0   0   0   
      0   0   0   0   0   
      0   0   0   0   0   
      0   0   0   0   0   
      0   0   0   0   0   
      0   0   0   0   0   
      0   0   0   0   0   
      0   0   0   0   0   
      0   0   0   0   0   
      0   0   0   0   0   
      0   0   0   0   0   
      0   0   0   0   0   
      0   0   0   0   0   
      0   0   0   0   0   
      0   0   0   0   0   
      0   0   0   0   0   
      0   0   0   0   0   
      0   0   0   0   0   
      0   0   0   0   0   
      0   0   0   0   0   
      0   0   0   0   0   
      0   0   0   0   0   
      0   0   0   0   0   
      0   0   0   0   0   
      0   0   0   0   0   
      0   0   0   0   0   
      0   0   0   0   0   
      0   0   0   0   0   
      0   0   0   0   0   
      0   0   0   0   0   
      0   0   0   0   0   
      0   0   0   0   0   
      0   0   0   0   0   
      0   0   0   0   0   
      0   0   0   0   0   
      0   0   0   0   0   
      0   0   0   0   0   
      0   0   0   0   0   
      0   0   0   0   0   
      0   0   0   0   0   
      0   0   0   0   0   
      0   0   0   0   0   
      0   0   0   0   0   
      0   0   0   0   0   
      0   0   0   0   0   
      0   0   0   0   0   
      0   0   0   0   0   
      0   0   0   0   0   
      0   0   0   0   0   
      0   0   0   0   0   
      0   0   0   0   0   
      0   0   0   0   0   
      0   0   0   0   0   
      0   0   0   0   0   
      0   0   0   0   0   
      0   0   0   0   0   
      0   0   0   0   0   
      0   0   0   0   0   
      0   0   0   0   0   
      0   0   0   0   0   
      0   0   0   0   0   
      0   0   0   0   0   
      0   0   0   0   0   
      0   0   0   0   0   
      0   0   0   0   0   
      0   0   0   0   0   
      0   0   0   0   0   
      0   0   0   0   0   
      0   0   0   0   0   
      0   0   0   0   0   
      0   0   0   0   0   
      0   0   0   0   0   
      0   0   0   0   0   
      0   0   0   0   0   
      0   0   0   0   0   
      0   0   0   0   0   
      0   0   0   0   0   
      0   0   0   0   0   
      0   0   0   0   0   
      0   0   0   0   0   
      0   0   0   0   0   
      0   0   0   0   0   
      0   0   0   0   0   
      0   0   0   0   0   
      0   0   0   0   0   
      0   0   0   0   0   
      0   0   0   0   0   
      0   0   0   0   0   
      0   0   0   0   0   
      0   0   0   0   0   
      0   0   0   0   0   
      0   0   0   0   0   
      0   0   0   0   0   
      0   0   0   0   0   
      0   0   0   0   0   
      0   0   0   0   0   
      0   0   0   0   0   
      0   0   0   0   0   
      0   0   0   0   0   
      0   0   0   0   0   
      0   0   0   0   0   
      0   0   0   0   0   
      0   0   0   0   0   
      0   0   0   0   0   
      0   0   0   0   0   
      0   0   0   0   0   
      0   0   0   0   0   
      0   0   0   0   0   
      0   0   0   0   0   
      0   0   0   0   0   
      0   0   0   0   0   
      0   0   0   0   0   
      0   0   0   0   0   
      0   0   0   0   0   
      0   0   0   0   0   
      0   0   0   0   0   
      0   0   0   0   0   
      0   0   0   0   0   
      0   0   0   0   0   
      0   0   0   0   0   
      0   0   0   0   0   
      0   0   0   0   0   
      0   0   0   0   0   
      0   0   0   0   0   
      0   0   0   0   0   
      0   0   0   0   0   
      0   0   0   0   0   
      0   0   0   0   0   
      0   0   0   0   0   
      0   0   0   0   0   
      0   0   0   0   0   
      0   0   0   0   0   
      0   0   0   0   0   
      0   0   0   0   0   
      0   0   0   0   0   
      0   0   0   0   0   
      0   0   0   0   0   
      0   0   0   0   0   
      0   0   0   0   0   
      0   0   0   0   0   
      0   0   0   0   0   
      0   0   0   0   0   
      0   0   0   0   0   
      0   0   0   0   0   
      0   0   0   0   0   
      0   0   0   0   0   
      0   0   0   0   0   
      0   0   0   0   0   
      0   0   0   0   0   
      0   0   0   0   0   
      0   0   0   0   0   
      0   0   0   0   0   
      0   0   0   0   0   
      0   0   0   0   0   
      0   0   0   0   0   
      0   0   0   0   0   
      0   0   0   0   0   
      0   0   0   0   0   
      0   0   0   0   0   
      0   0   0   0   0   
      0   0   0   0   0   
      0   0   0   0   0   
      0   0   0   0   0   
      0   0   0   0   0   
      0   0   0   0   0   
      0   0   0   0   0   
      0   0   0   0   0   
      0   0   0   0   0   
      0   0   0   0   0   
      0   0   0   0   0   
      0   0   0   0   0   
      0.0840596663151   0.0840635486875   0.0840751850007   0.0840945426968   0.0841215670312   
      0.0841561803547   0.0841982811188   0.0842477426151   0.084304411465   0.0843681058803   
      0.0844386137239   0.0845156904057   0.0845990566597   0.0846883962592   0.0847833537355   
      0.0848835321815   0.0849884912318   0.0850977453235   0.0852107623522   0.0853269628478   
      0.0854457198   0.0855663592638   0.0856881618739   0.0858103653868   0.085932168351   
      0.0860527349857   0.0861712013139   0.0862866825593   0.0863982817735   0.086505099607   
      0.0866062450917   0.0867008472457   0.0867880672659   0.0868671110278   0.0869372415763   
      0.0869977912699   0.087048173225   0.0870878917146   0.0871165511919   0.0871338636448   
      0.0871396540361   0.0871338636448   0.0871165511919   0.0870878917146   0.087048173225   
      0.0869977912699   0.0869372415763   0.0868671110278   0.0867880672659   0.0867008472457   
      0.0866062450917   0.086505099607   0.0863982817735   0.0862866825593   0.0861712013139   
      0.0860527349857   0.085932168351   0.0858103653868   0.0856881618739   0.0855663592638   
      0.0854457198   0.0853269628478   0.0852107623522   0.0850977453235   0.0849884912318   
      0.0848835321815   0.0847833537355   0.0846883962592   0.0845990566597   0.0845156904057   
      0.0844386137239   0.0843681058803   0.084304411465   0.0842477426151   0.0841982811188   
      0.0841561803547   0.0841215670312   0.0840945426968   0.0840751850007   0.0840635486875   
      0.0927979584219   0.0928035243018   0.092820206858   0.0928479606218   0.0928867090872   
      0.0929363436311   0.0929967220165   0.0930676664962   0.0931489615408   0.0932403512226   
      0.0933415362983   0.0934521710441   0.0935718599126   0.093700154093   0.0938365480769   
      0.0939804763474   0.0941313103273   0.0942883557427   0.094450850569   0.0946179637442   
      0.0947887948387   0.0949623748743   0.0951376684793   0.0953135775517   0.0954889465774   
      0.0956625697163   0.0958331997212   0.0959995587003   0.0961603506686   0.0963142757612   
      0.0964600459102   0.0965964017084   0.0967221301151   0.0968360825963   0.0969371932402   
      0.0970244963572   0.097097143057   0.097154416301   0.0971957439588   0.0972207094449   
      0.0972290595851   0.0972207094449   0.0971957439588   0.097154416301   0.097097143057   
      0.0970244963572   0.0969371932402   0.0968360825963   0.0967221301151   0.0965964017084   
      0.0964600459102   0.0963142757612   0.0961603506686   0.0959995587003   0.0958331997212   
      0.0956625697163   0.0954889465774   0.0953135775517   0.0951376684793   0.0949623748743   
      0.0947887948387   0.0946179637442   0.094450850569   0.0942883557427   0.0941313103273   
      0.0939804763474   0.0938365480769   0.093700154093   0.0935718599126   0.0934521710441   
      0.0933415362983   0.0932403512226   0.0931489615408   0.0930676664962   0.0929967220165   
      0.0929363436311   0.0928867090872   0.0928479606218   0.092820206858   0.0928035243018   
      0.107847778119   0.107856866807   0.10788410879   0.107929431449   0.107992712509   
      0.108073778186   0.108172400614   0.108288294599   0.108421113724   0.108570445866   
      0.108735808214   0.108916641855   0.109112306079   0.109322072516   0.109545119302   
      0.109780525465   0.11002726576   0.110284206231   0.110550100766   0.110823588959   
      0.1111031956   0.111387332104   0.111674300177   0.111962298015   0.112249429244   
      0.112533714791   0.112813107772   0.113085511392   0.113348799752   0.113600841342   
      0.113839524866   0.114062786948   0.11426864113   0.114455207512   0.114620742268   
      0.114763666261   0.114882591935   0.114976347689   0.115043998983   0.115084865518   
      0.115098533919   0.115084865518   0.115043998983   0.114976347689   0.114882591935   
      0.114763666261   0.114620742268   0.114455207512   0.11426864113   0.114062786948   
      0.113839524866   0.113600841342   0.113348799752   0.113085511392   0.112813107772   
      0.112533714791   0.112249429244   0.111962298015   0.111674300177   0.111387332104   
      0.1111031956   0.110823588959   0.110550100766   0.110284206231   0.11002726576   
      0.109780525465   0.109545119302   0.109322072516   0.109112306079   0.108916641855   
      0.108735808214   0.108570445866   0.108421113724   0.108288294599   0.108172400614   
      0.108073778186   0.107992712509   0.107929431449   0.10788410879   0.107856866807   
      0.120444692472   0.120457582763   0.120496219439   0.120560499365   0.120650248831   
      0.120765220839   0.120905091367   0.121069454623   0.121257817386   0.121469592511   
      0.121704091708   0.121960517757   0.122237956314   0.122535367557   0.122851577905   
      0.123185272124   0.123534986159   0.123899101071   0.124275838491   0.124663258024   
      0.125059257047   0.125461573336   0.125867790932   0.126275349618   0.126681558284   
      0.127083612397   0.127478615649   0.12786360573   0.128235584044   0.128591548982   
      0.128928532262   0.129243637639   0.129534081198   0.129797232284   0.130030654066   
      0.130232142672   0.130399763804   0.130531885815   0.130627208258   0.130684785049   
      0.130704041553   0.130684785049   0.130627208258   0.130531885815   0.130399763804   
      0.130232142672   0.130030654066   0.129797232284   0.129534081198   0.129243637639   
      0.128928532262   0.128591548982   0.128235584044   0.12786360573   0.127478615649   
      0.127083612397   0.126681558284   0.126275349618   0.125867790932   0.125461573336   
      0.125059257047   0.124663258024   0.124275838491   0.123899101071   0.123534986159   
      0.123185272124   0.122851577905   0.122535367557   0.122237956314   0.121960517757   
      0.121704091708   0.121469592511   0.121257817386   0.121069454623   0.120905091367   
      0.120765220839   0.120650248831   0.120560499365   0.120496219439   0.120457582763   
      0.132290881816   0.132307572036   0.132357597635   0.132440822704   0.132557018333   
      0.132705859046   0.132886917884   0.133099660188   0.133343436202   0.133617472605   
      0.133920863147   0.134252558595   0.134611356231   0.134995889225   0.135404616208   
      0.135835811476   0.136287556271   0.136757731634   0.137244013374   0.137743869695   
      0.138254562041   0.138773149692   0.1392964986   0.139821294864   0.140344063173   
      0.140861190391   0.141368954299   0.141863557371   0.142341165225   0.142797949255   
      0.143230132706   0.143634039343   0.144006143665   0.144343121519   0.144641899918   
      0.144899704764   0.145114105269   0.145283053852   0.145404920427   0.145478520142   
      0.145503133762   0.145478520142   0.145404920427   0.145283053852   0.145114105269   
      0.144899704764   0.144641899918   0.144343121519   0.144006143665   0.143634039343   
      0.143230132706   0.142797949255   0.142341165225   0.141863557371   0.141368954299   
      0.140861190391   0.140344063173   0.139821294864   0.1392964986   0.138773149692   
      0.138254562041   0.137743869695   0.137244013374   0.136757731634   0.136287556271   
      0.135835811476   0.135404616208   0.134995889225   0.134611356231   0.134252558595   
      0.133920863147   0.133617472605   0.133343436202   0.133099660188   0.132886917884   
      0.132705859046   0.132557018333   0.132440822704   0.132357597635   0.132307572036   
      0.142539872941   0.142559852958   0.142619737537   0.1427193594   0.142858436857   
      0.143036569522   0.143253232395   0.143507768417   0.143799379624   0.144127117078   
      0.144489869779   0.144886352841   0.145315095247   0.145774427574   0.146262470122   
      0.146777121964   0.147316051471   0.147876688903   0.14845622171   0.149051593188   
      0.149659505097   0.150276424851   0.150898597785   0.151522064905   0.152142686402   
      0.152756171048   0.153358111378   0.153944024409   0.154509397386   0.15504973788   
      0.155560627344   0.156037777084   0.156477085452   0.156874694988   0.157227048168   
      0.15753094042   0.157783569121   0.15798257733   0.158126091196   0.158212750069   
      0.158241728572   0.158212750069   0.158126091196   0.15798257733   0.157783569121   
      0.15753094042   0.157227048168   0.156874694988   0.156477085452   0.156037777084   
      0.155560627344   0.15504973788   0.154509397386   0.153944024409   0.153358111378   
      0.152756171048   0.152142686402   0.151522064905   0.150898597785   0.150276424851   
      0.149659505097   0.149051593188   0.14845622171   0.147876688903   0.147316051471   
      0.146777121964   0.146262470122   0.145774427574   0.145315095247   0.144886352841   
      0.144489869779   0.144127117078   0.143799379624   0.143507768417   0.143253232395   
      0.143036569522   0.142858436857   0.1427193594   0.142619737537   0.142559852958   
      0.150594104579   0.150616608022   0.150684054006   0.150796248505   0.150952864887   
      0.151153439084   0.151397362947   0.151683875895   0.15201205504   0.152380803976   
      0.152788840524   0.153234683727   0.153716640512   0.154232792456   0.154780983183   
      0.155358806983   0.155963599269   0.15659242957   0.15724209775   0.157909134145   
      0.158589804288   0.159280118823   0.159975849103   0.160672548855   0.161365582109   
      0.162050157416   0.162721368151   0.163374238497   0.164003774478   0.1646050192   
      0.165173111279   0.165703345292   0.166191232968   0.166632563772   0.16702346353   
      0.167360449755   0.16764048241   0.167861008958   0.168020002675   0.168115993366   
      0.168148089799   0.168115993366   0.168020002675   0.167861008958   0.16764048241   
      0.167360449755   0.16702346353   0.166632563772   0.166191232968   0.165703345292   
      0.165173111279   0.1646050192   0.164003774478   0.163374238497   0.162721368151   
      0.162050157416   0.161365582109   0.160672548855   0.159975849103   0.159280118823   
      0.158589804288   0.157909134145   0.15724209775   0.15659242957   0.155963599269   
      0.155358806983   0.154780983183   0.154232792456   0.153716640512   0.153234683727   
      0.152788840524   0.152380803976   0.15201205504   0.151683875895   0.151397362947   
      0.151153439084   0.150952864887   0.150796248505   0.150684054006   0.150616608022   
      0.156072888391   0.156097058575   0.15616949834   0.15628999426   0.15645818714   
      0.156673566839   0.156935465165   0.157243046968   0.15759529963   0.157991021184   
      0.158428807369   0.158907037986   0.159423862998   0.159977188869   0.160564665725   
      0.161183675973   0.161831325063   0.162504435121   0.163199542186   0.16391289777   
      0.164640475423   0.165377982892   0.166120880341   0.166864404966   0.167603602136   
      0.168333362985   0.169048468171   0.169743637264   0.170413583042   0.171053069736   
      0.171656974125   0.17222034824   0.172738482358   0.17320696692   0.173621752051   
      0.173979203364   0.174276152883   0.174509943993   0.174678469502   0.17478020204   
      0.17481421621   0.17478020204   0.174678469502   0.174509943993   0.174276152883   
      0.173979203364   0.173621752051   0.17320696692   0.172738482358   0.17222034824   
      0.171656974125   0.171053069736   0.170413583042   0.169743637264   0.169048468171   
      0.168333362985   0.167603602136   0.166864404966   0.166120880341   0.165377982892   
      0.164640475423   0.16391289777   0.163199542186   0.162504435121   0.161831325063   
      0.161183675973   0.160564665725   0.159977188869   0.159423862998   0.158907037986   
      0.158428807369   0.157991021184   0.15759529963   0.157243046968   0.156935465165   
      0.156673566839   0.15645818714   0.15628999426   0.15616949834   0.156097058575   
      0.158829505954   0.158854496185   0.158929392709   0.159053971925   0.159227857569   
      0.159450515371   0.159721245738   0.160039174584   0.160403242531   0.160812192721   
      0.161264557575   0.161758644882   0.162292523684   0.162864010478   0.163470656356   
      0.164109735733   0.164778237376   0.165472858493   0.166190002616   0.166925782023   
      0.167676025359   0.168436291059   0.169201887   0.169967896693   0.170729212093   
      0.17148057292   0.172216612123   0.172931906915   0.173621034581   0.174278632054   
      0.174899458128   0.175478457011   0.176010821918   0.17649205732   0.176918038551   
      0.177285067497   0.177589923249   0.177829906678   0.178002878087   0.178107287223   
      0.178142195093   0.178107287223   0.178002878087   0.177829906678   0.177589923249   
      0.177285067497   0.176918038551   0.17649205732   0.176010821918   0.175478457011   
      0.174899458128   0.174278632054   0.173621034581   0.172931906915   0.172216612123   
      0.17148057292   0.170729212093   0.169967896693   0.169201887   0.168436291059   
      0.167676025359   0.166925782023   0.166190002616   0.165472858493   0.164778237376   
      0.164109735733   0.163470656356   0.162864010478   0.162292523684   0.161758644882   
      0.161264557575   0.160812192721   0.160403242531   0.160039174584   0.159721245738   
      0.159450515371   0.159227857569   0.159053971925   0.158929392709   0.158854496185   
      0.158829505954   0.158854496185   0.158929392709   0.159053971925   0.159227857569   
      0.159450515371   0.159721245738   0.160039174584   0.160403242531   0.160812192721   
      0.161264557575   0.161758644882   0.162292523684   0.162864010478   0.163470656356   
      0.164109735733   0.164778237376   0.165472858493   0.166190002616   0.166925782023   
      0.167676025359   0.168436291059   0.169201887   0.169967896693   0.170729212093   
      0.17148057292   0.172216612123   0.172931906915   0.173621034581   0.174278632054   
      0.174899458128   0.175478457011   0.176010821918   0.17649205732   0.176918038551   
      0.177285067497   0.177589923249   0.177829906678   0.178002878087   0.178107287223   
      0.178142195093   0.178107287223   0.178002878087   0.177829906678   0.177589923249   
      0.177285067497   0.176918038551   0.17649205732   0.176010821918   0.175478457011   
      0.174899458128   0.174278632054   0.173621034581   0.172931906915   0.172216612123   
      0.17148057292   0.170729212093   0.169967896693   0.169201887   0.168436291059   
      0.167676025359   0.166925782023   0.166190002616   0.165472858493   0.164778237376   
      0.164109735733   0.163470656356   0.162864010478   0.162292523684   0.161758644882   
      0.161264557575   0.160812192721   0.160403242531   0.160039174584   0.159721245738   
      0.159450515371   0.159227857569   0.159053971925   0.158929392709   0.158854496185   
      0.156072888391   0.156097058575   0.15616949834   0.15628999426   0.15645818714   
      0.156673566839   0.156935465165   0.157243046968   0.15759529963   0.157991021184   
      0.158428807369   0.158907037986   0.159423862998   0.159977188869   0.160564665725   
      0.161183675973   0.161831325063   0.162504435121   0.163199542186   0.16391289777   
      0.164640475423   0.165377982892   0.166120880341   0.166864404966   0.167603602136   
      0.168333362985   0.169048468171   0.169743637264   0.170413583042   0.171053069736   
      0.171656974125   0.17222034824   0.172738482358   0.17320696692   0.173621752051   
      0.173979203364   0.174276152883   0.174509943993   0.174678469502   0.17478020204   
      0.17481421621   0.17478020204   0.174678469502   0.174509943993   0.174276152883   
      0.173979203364   0.173621752051   0.17320696692   0.172738482358   0.17222034824   
      0.171656974125   0.171053069736   0.170413583042   0.169743637264   0.169048468171   
      0.168333362985   0.167603602136   0.166864404966   0.166120880341   0.165377982892   
      0.164640475423   0.16391289777   0.163199542186   0.162504435121   0.161831325063   
      0.161183675973   0.160564665725   0.159977188869   0.159423862998   0.158907037986   
      0.158428807369   0.157991021184   0.15759529963   0.157243046968   0.156935465165   
      0.156673566839   0.15645818714   0.15628999426   0.15616949834   0.156097058575   
      0.150594104579   0.150616608022   0.150684054006   0.150796248505   0.150952864887   
      0.151153439084   0.151397362947   0.151683875895   0.15201205504   0.152380803976   
      0.152788840524   0.153234683727   0.153716640512   0.154232792456   0.154780983183   
      0.155358806983   0.155963599269   0.15659242957   0.15724209775   0.157909134145   
      0.158589804288   0.159280118823   0.159975849103   0.160672548855   0.161365582109   
      0.162050157416   0.162721368151   0.163374238497   0.164003774478   0.1646050192   
      0.165173111279   0.165703345292   0.166191232968   0.166632563772   0.16702346353   
      0.167360449755   0.16764048241   0.167861008958   0.168020002675   0.168115993366   
      0.168148089799   0.168115993366   0.168020002675   0.167861008958   0.16764048241   
      0.167360449755   0.16702346353   0.166632563772   0.166191232968   0.165703345292   
      0.165173111279   0.1646050192   0.164003774478   0.163374238497   0.162721368151   
      0.162050157416   0.161365582109   0.160672548855   0.159975849103   0.159280118823   
      0.158589804288   0.157909134145   0.15724209775   0.15659242957   0.155963599269   
      0.155358806983   0.154780983183   0.154232792456   0.153716640512   0.153234683727   
      0.152788840524   0.152380803976   0.15201205504   0.151683875895   0.151397362947   
      0.151153439084   0.150952864887   0.150796248505   0.150684054006   0.150616608022   
      0.142539872941   0.142559852958   0.142619737537   0.1427193594   0.142858436857   
      0.143036569522   0.143253232395   0.143507768417   0.143799379624   0.144127117078   
      0.144489869779   0.144886352841   0.145315095247   0.145774427574   0.146262470122   
      0.146777121964   0.147316051471   0.147876688903   0.14845622171   0.149051593188   
      0.149659505097   0.150276424851   0.150898597785   0.151522064905   0.152142686402   
      0.152756171048   0.153358111378   0.153944024409   0.154509397386   0.15504973788   
      0.155560627344   0.156037777084   0.156477085452   0.156874694988   0.157227048168   
      0.15753094042   0.157783569121   0.15798257733   0.158126091196   0.158212750069   
      0.158241728572   0.158212750069   0.158126091196   0.15798257733   0.157783569121   
      0.15753094042   0.157227048168   0.156874694988   0.156477085452   0.156037777084   
      0.155560627344   0.15504973788   0.154509397386   0.153944024409   0.153358111378   
      0.152756171048   0.152142686402   0.151522064905   0.150898597785   0.150276424851   
      0.149659505097   0.149051593188   0.14845622171   0.147876688903   0.147316051471   
      0.146777121964   0.146262470122   0.145774427574   0.145315095247   0.144886352841   
      0.144489869779   0.144127117078   0.143799379624   0.143507768417   0.143253232395   
      0.143036569522   0.142858436857   0.1427193594   0.142619737537   0.142559852958   
      0.132290881816   0.132307572036   0.132357597635   0.132440822704   0.132557018333   
      0.132705859046   0.132886917884   0.133099660188   0.133343436202   0.133617472605   
      0.133920863147   0.134252558595   0.134611356231   0.134995889225   0.135404616208   
      0.135835811476   0.136287556271   0.136757731634   0.137244013374   0.137743869695   
      0.138254562041   0.138773149692   0.1392964986   0.139821294864   0.140344063173   
      0.140861190391   0.141368954299   0.141863557371   0.142341165225   0.142797949255   
      0.143230132706   0.143634039343   0.144006143665   0.144343121519   0.144641899918   
      0.144899704764   0.145114105269   0.145283053852   0.145404920427   0.145478520142   
      0.145503133762   0.145478520142   0.145404920427   0.145283053852   0.145114105269   
      0.144899704764   0.144641899918   0.144343121519   0.144006143665   0.143634039343   
      0.143230132706   0.142797949255   0.142341165225   0.141863557371   0.141368954299   
      0.140861190391   0.140344063173   0.139821294864   0.1392964986   0.138773149692   
      0.138254562041   0.137743869695   0.137244013374   0.136757731634   0.136287556271   
      0.135835811476   0.135404616208   0.134995889225   0.134611356231   0.134252558595   
      0.133920863147   0.133617472605   0.133343436202   0.133099660188   0.132886917884   