<?xml version="1.0"?>
<VTKFile type="ImageData" version="0.1" byte_order="LittleEndian">
  <ImageData WholeExtent="0 79 0 19 0 19" Origin="0 0 0" Spacing="1 1 1">
  <Piece Extent="0 79 0 19 0 19">
    <PointData Scalars="density">
       <DataArray type="Float32" Name="reddensity" NumberOfComponents="1" format="ascii">
      0   0   0   0   0   
      0   0   0   0   0   
      0   0   0   0   0   
      0   0   0   0   0   
      0   0   0   0   0   
      0   0   0   0   0   
      0   0   0   0   0   
      0   0   0   0   0   
      0   0   0   0   0   
      0   0   0   0   0   
      0   0   0   0   0   
      0   0   0   0   0   
      0   0   0   0   0   
      0   0   0   0   0   
      0   0   0   0   0   
      0   0   0   0   0   
      0   0   0   0   0   
      0   0   0   0   0   
      0   0   0   0   0   
      0   0   0   0   0   
      0   0   0   0   0   
      0   0   0   0   0   
      0   0   0   0   0   
      0   0   0   0   0   
      0   0   0   0   0   
      0   0   0   0   0   
      0   0   0   0   0   
      0   0   0   0   0   
      0   0   0   0   0   
      0   0   0   0   0   
      0   0   0   0   0   
      0   0   0   0   0   
      0   0   0   0   0   
      0   0   0   0   0   
      0   0   0   0   0   
      0   0   0   0   0   
      0   0   0   0   0   
      0   0   0   0   0   
      0   0   0   0   0   
      0   0   0   0   0   
      0   0   0   0   0   
      0   0   0   0   0   
      0   0   0   0   0   
      0   0   0   0   0   
      0   0   0   0   0   
      0   0   0   0   0   
      0   0   0   0   0   
      0   0   0   0   0   
      0   0   0   0   0   
      0   0   0   0   0   
      0   0   0   0   0   
      0   0   0   0   0   
      0   0   0   0   0   
      0   0   0   0   0   
      0   0   0   0   0   
      0   0   0   0   0   
      0   0   0   0   0   
      0   0   0   0   0   
      0   0   0   0   0   
      0   0   0   0   0   
      0   0   0   0   0   
      0   0   0   0   0   
      0   0   0   0   0   
      0   0   0   0   0   
      0   0   0   0   0   
      0   0   0   0   0   
      0   0   0   0   0   
      0   0   0   0   0   
      0   0   0   0   0   
      0   0   0   0   0   
      0   0   0   0   0   
      0   0   0   0   0   
      0   0   0   0   0   
      0   0   0   0   0   
      0   0   0   0   0   
      0   0   0   0   0   
      0   0   0   0   0   
      0   0   0   0   0   
      0   0   0   0   0   
      0   0   0   0   0   
      0   0   0   0   0   
      0   0   0   0   0   
      0   0   0   0   0   
      0   0   0   0   0   
      0   0   0   0   0   
      0   0   0   0   0   
      0   0   0   0   0   
      0   0   0   0   0   
      0   0   0   0   0   
      0   0   0   0   0   
      0   0   0   0   0   
      0   0   0   0   0   
      0   0   0   0   0   
      0   0   0   0   0   
      0   0   0   0   0   
      0   0   0   0   0   
      0   0   0   0   0   
      0   0   0   0   0   
      0   0   0   0   0   
      0   0   0   0   0   
      0   0   0   0   0   
      0   0   0   0   0   
      0   0   0   0   0   
      0   0   0   0   0   
      0   0   0   0   0   
      0   0   0   0   0   
      0   0   0   0   0   
      0   0   0   0   0   
      0   0   0   0   0   
      0   0   0   0   0   
      0   0   0   0   0   
      0   0   0   0   0   
      0   0   0   0   0   
      0   0   0   0   0   
      0   0   0   0   0   
      0   0   0   0   0   
      0   0   0   0   0   
      0   0   0   0   0   
      0   0   0   0   0   
      0   0   0   0   0   
      0   0   0   0   0   
      0   0   0   0   0   
      0   0   0   0   0   
      0   0   0   0   0   
      0   0   0   0   0   
      0   0   0   0   0   
      0   0   0   0   0   
      0   0   0   0   0   
      0   0   0   0   0   
      0   0   0   0   0   
      0   0   0   0   0   
      0   0   0   0   0   
      0   0   0   0   0   
      0   0   0   0   0   
      0   0   0   0   0   
      0   0   0   0   0   
      0   0   0   0   0   
      0   0   0   0   0   
      0   0   0   0   0   
      0   0   0   0   0   
      0   0   0   0   0   
      0   0   0   0   0   
      0   0   0   0   0   
      0   0   0   0   0   
      0   0   0   0   0   
      0   0   0   0   0   
      0   0   0   0   0   
      0   0   0   0   0   
      0   0   0   0   0   
      0   0   0   0   0   
      0   0   0   0   0   
      0   0   0   0   0   
      0   0   0   0   0   
      0   0   0   0   0   
      0   0   0   0   0   
      0   0   0   0   0   
      0   0   0   0   0   
      0   0   0   0   0   
      0   0   0   0   0   
      0   0   0   0   0   
      0   0   0   0   0   
      0   0   0   0   0   
      0   0   0   0   0   
      0   0   0   0   0   
      0   0   0   0   0   
      0   0   0   0   0   
      0   0   0   0   0   
      0   0   0   0   0   
      0   0   0   0   0   
      0   0   0   0   0   
      0   0   0   0   0   
      0   0   0   0   0   
      0   0   0   0   0   
      0   0   0   0   0   
      0   0   0   0   0   
      0   0   0   0   0   
      0   0   0   0   0   
      0   0   0   0   0   
      0   0   0   0   0   
      0   0   0   0   0   
      0   0   0   0   0   
      0   0   0   0   0   
      0   0   0   0   0   
      0   0   0   0   0   
      0   0   0   0   0   
      0   0   0   0   0   
      0   0   0   0   0   
      0   0   0   0   0   
      0   0   0   0   0   
      0   0   0   0   0   
      0   0   0   0   0   
      0   0   0   0   0   
      0   0   0   0   0   
      0   0   0   0   0   
      0   0   0   0   0   
      0   0   0   0   0   
      0   0   0   0   0   
      0   0   0   0   0   
      0   0   0   0   0   
      0   0   0   0   0   
      0   0   0   0   0   
      0   0   0   0   0   
      0   0   0   0   0   
      0   0   0   0   0   
      0   0   0   0   0   
      0   0   0   0   0   
      0   0   0   0   0   
      0   0   0   0   0   
      0   0   0   0   0   
      0   0   0   0   0   
      0   0   0   0   0   
      0   0   0   0   0   
      0   0   0   0   0   
      0   0   0   0   0   
      0   0   0   0   0   
      0   0   0   0   0   
      0   0   0   0   0   
      0   0   0   0   0   
      0   0   0   0   0   
      0   0   0   0   0   
      0   0   0   0   0   
      0   0   0   0   0   
      0   0   0   0   0   
      0   0   0   0   0   
      0   0   0   0   0   
      0   0   0   0   0   
      0   0   0   0   0   
      0   0   0   0   0   
      0   0   0   0   0   
      0   0   0   0   0   
      0   0   0   0   0   
      0   0   0   0   0   
      0   0   0   0   0   
      0   0   0   0   0   
      0   0   0   0   0   
      0   0   0   0   0   
      0   0   0   0   0   
      0   0   0   0   0   
      0   0   0   0   0   
      0   0   0   0   0   
      0   0   0   0   0   
      0   0   0   0   0   
      0   0   0   0   0   
      0   0   0   0   0   
      0   0   0   0   0   
      0   0   0   0   0   
      0   0   0   0   0   
      0   0   0   0   0   
      0   0   0   0   0   
      0   0   0   0   0   
      0   0   0   0   0   
      0   0   0   0   0   
      0   0   0   0   0   
      0   0   0   0   0   
      0   0   0   0   0   
      0   0   0   0   0   
      0   0   0   0   0   
      0   0   0   0   0   
      0   0   0   0   0   
      0   0   0   0   0   
      0   0   0   0   0   
      0   0   0   0   0   
      0   0   0   0   0   
      0   0   0   0   0   
      0   0   0   0   0   
      0   0   0   0   0   
      0   0   0   0   0   
      0   0   0   0   0   
      0   0   0   0   0   
      0   0   0   0   0   
      0   0   0   0   0   
      0   0   0   0   0   
      0   0   0   0   0   
      0   0   0   0   0   
      0   0   0   0   0   
      0   0   0   0   0   
      0   0   0   0   0   
      0   0   0   0   0   
      0   0   0   0   0   
      0   0   0   0   0   
      0   0   0   0   0   
      0   0   0   0   0   
      0   0   0   0   0   
      0   0   0   0   0   
      0   0   0   0   0   
      0   0   0   0   0   
      0   0   0   0   0   
      0   0   0   0   0   
      0   0   0   0   0   
      0   0   0   0   0   
      0   0   0   0   0   
      0   0   0   0   0   
      0   0   0   0   0   
      0   0   0   0   0   
      0   0   0   0   0   
      0   0   0   0   0   
      0   0   0   0   0   
      0   0   0   0   0   
      0   0   0   0   0   
      0   0   0   0   0   
      0   0   0   0   0   
      0   0   0   0   0   
      0   0   0   0   0   
      0   0   0   0   0   
      0   0   0   0   0   
      0   0   0   0   0   
      0   0   0   0   0   
      0   0   0   0   0   
      0   0   0   0   0   
      0   0   0   0   0   
      0   0   0   0   0   
      0   0   0   0   0   
      0   0   0   0   0   
      0   0   0   0   0   
      0   0   0   0   0   
      0   0   0   0   0   
      0   0   0   0   0   
      0   0   0   0   0   
      0   0   0   0   0   
      0   0   0   0   0   
      0   0   0   0   0   
      0   0   0   0   0   
      0   0   0   0   0   
      0   0   0   0   0   
      0   0   0   0   0   
      0   0   0   0   0   
      0   0   0   0   0   
      0   0   0   0   0   
      0   0   0   0   0   
      0   0   0   0   0   
      0   0   0   0   0   
      0   0   0   0   0   
      0   0   0   0   0   
      0   0   0   0   0   
      0   0   0   0   0   
      0   0   0   0   0   
      0.0813189416854   0.0813284107716   0.0813568392899   0.0814042909133   0.0814708713835   
      0.0815567278413   0.0816620476874   0.081787056757   0.0819320165144   0.0820972198846   
      0.0822829852434   0.082489647983   0.0827175489732   0.0829670191535   0.0832383594378   
      0.0835318151164   0.0838475440151   0.0841855778609   0.0845457766177   0.0849277760213   
      0.0853309291636   0.0857542437356   0.0861963173982   0.0866552746442   0.0871287093485   
      0.0876136378696   0.0881064679424   0.0886029885857   0.0890983857552   0.0895872874723   
      0.0900638406715   0.0905218201102   0.0909547675273   0.0913561569775   0.0917195801278   
      0.0920389434659   0.0923086680174   0.0925238814275   0.0926805922163   0.0927758366732   
      0.0928077901828   0.0927758366732   0.0926805922163   0.0925238814275   0.0923086680174   
      0.0920389434659   0.0917195801278   0.0913561569775   0.0909547675273   0.0905218201102   
      0.0900638406715   0.0895872874723   0.0890983857552   0.0886029885857   0.0881064679424   
      0.0876136378696   0.0871287093485   0.0866552746442   0.0861963173982   0.0857542437356   
      0.0853309291636   0.0849277760213   0.0845457766177   0.0841855778609   0.0838475440151   
      0.0835318151164   0.0832383594378   0.0829670191535   0.0827175489732   0.082489647983   
      0.0822829852434   0.0820972198846   0.0819320165144   0.081787056757   0.0816620476874   
      0.0815567278413   0.0814708713835   0.0814042909133   0.0813568392899   0.0813284107716   
      0.0888447498485   0.0888581301134   0.0888983054151   0.0889653790989   0.0890595227773   
      0.0891809752362   0.089330040596   0.0895070853994   0.089712534185   0.0899468629707   
      0.0902105899283   0.0905042623857   0.0908284391446   0.0911836669886   0.0915704501822   
      0.0919892117759   0.0924402456633   0.0929236586277   0.0934393021034   0.0939866940921   
      0.0945649326118   0.0951726031986   0.0958076842615   0.0964674554032   0.097148415012   
      0.097846214346   0.0985556157722   0.099270482654   0.0999838074826   0.1006877832   
      0.101373920324   0.102033209637   0.102656327021   0.103233873886   0.103756643746   
      0.104215903192   0.104603673927   0.104913001889   0.105138199723   0.10527505001   
      0.105320958606   0.10527505001   0.105138199723   0.104913001889   0.104603673927   
      0.104215903192   0.103756643746   0.103233873886   0.102656327021   0.102033209637   
      0.101373920324   0.1006877832   0.0999838074826   0.099270482654   0.0985556157722   
      0.097846214346   0.097148415012   0.0964674554032   0.0958076842615   0.0951726031986   
      0.0945649326118   0.0939866940921   0.0934393021034   0.0929236586277   0.0924402456633   
      0.0919892117759   0.0915704501822   0.0911836669886   0.0908284391446   0.0905042623857   
      0.0902105899283   0.0899468629707   0.089712534185   0.0895070853994   0.089330040596   
      0.0891809752362   0.0890595227773   0.0889653790989   0.0888983054151   0.0888581301134   
      0.101351805917   0.101373338032   0.101437997578   0.101545973802   0.101697580885   
      0.101893255821   0.102133554907   0.102419148242   0.102750811472   0.103129413756   
      0.103555900699   0.10403127076   0.104556543386   0.105132716976   0.105760714659   
      0.106441315977   0.107175072815   0.107962208548   0.108802500253   0.109695145219   
      0.110638614634   0.111630499372   0.112667355002   0.113744555251   0.114856164986   
      0.115994844978   0.11715180087   0.11831678791   0.119478180704   0.120623113894   
      0.121737695221   0.122807287546   0.123816851378   0.124751334997   0.125596095583   
      0.126337332466   0.126962512551   0.127460768322   0.127823250306   0.128043418293   
      0.128117258621   0.128043418293   0.127823250306   0.127460768322   0.126962512551   
      0.126337332466   0.125596095583   0.124751334997   0.123816851378   0.122807287546   
      0.121737695221   0.120623113894   0.119478180704   0.11831678791   0.11715180087   
      0.115994844978   0.114856164986   0.113744555251   0.112667355002   0.111630499372   
      0.110638614634   0.109695145219   0.108802500253   0.107962208548   0.107175072815   
      0.106441315977   0.105760714659   0.105132716976   0.104556543386   0.10403127076   
      0.103555900699   0.103129413756   0.102750811472   0.102419148242   0.102133554907   
      0.101893255821   0.101697580885   0.101545973802   0.101437997578   0.101373338032   
      0.111168969179   0.11119929601   0.11129037173   0.111442481399   0.111656097928   
      0.111931878364   0.112270657835   0.112673440219   0.113141384344   0.113675784138   
      0.11427804081   0.114949624818   0.115692025013   0.116506682204   0.11739490432   
      0.118357760577   0.119395952706   0.120509662327   0.121698375248   0.122960685629   
      0.124294085736   0.125694750062   0.127157325776   0.128674744238   0.130238070338   
      0.131836407006   0.133456871249   0.135084655026   0.136703179511   0.138294345062   
      0.139838872238   0.141316722347   0.142707580092   0.143991376615   0.14514882902   
      0.146161972351   0.147014661737   0.147693025449   0.148185853386   0.148484909381   
      0.148585159235   0.148484909381   0.148185853386   0.147693025449   0.147014661737   
      0.146161972351   0.14514882902   0.143991376615   0.142707580092   0.141316722347   
      0.139838872238   0.138294345062   0.136703179511   0.135084655026   0.133456871249   
      0.131836407006   0.130238070338   0.128674744238   0.127157325776   0.125694750062   
      0.124294085736   0.122960685629   0.121698375248   0.120509662327   0.119395952706   
      0.118357760577   0.11739490432   0.116506682204   0.115692025013   0.114949624818   
      0.11427804081   0.113675784138   0.113141384344   0.112673440219   0.112270657835   
      0.111931878364   0.111656097928   0.111442481399   0.11129037173   0.11119929601   
      0.120196755013   0.12023596048   0.120353704068   0.120550366322   0.120826577908   
      0.121183213637   0.121621382844   0.12214241482   0.122747837545   0.123439347535   
      0.1242187681   0.125087992926   0.126048911483   0.127103312643   0.128252762993   
      0.129498456892   0.130841036462   0.132280381545   0.133815372298   0.135443630455   
      0.137161249289   0.138962526517   0.140839718279   0.142782835339   0.14477950383   
      0.14681491185   0.148871859408   0.150930922847   0.152970736393   0.154968383976   
      0.156899885236   0.158740751969   0.160466586371   0.162053690752   0.163479660026   
      0.164723932551   0.165768280852   0.16659723028   0.167198399635   0.167562762441   
      0.167684830497   0.167562762441   0.167198399635   0.16659723028   0.165768280852   
      0.164723932551   0.163479660026   0.162053690752   0.160466586371   0.158740751969   
      0.156899885236   0.154968383976   0.152970736393   0.150930922847   0.148871859408   
      0.14681491185   0.14477950383   0.142782835339   0.140839718279   0.138962526517   
      0.137161249289   0.135443630455   0.133815372298   0.132280381545   0.130841036462   
      0.129498456892   0.128252762993   0.127103312643   0.126048911483   0.125087992926   
      0.1242187681   0.123439347535   0.122747837545   0.12214241482   0.121621382844   
      0.121183213637   0.120826577908   0.120550366322   0.120353704068   0.12023596048   
      0.127959719819   0.128006763385   0.128148048188   0.128384035028   0.128715486586   
      0.129143458641   0.129669286094   0.130294562098   0.131021108003   0.131850931251   
      0.132786167816   0.133829005244   0.134981582071   0.136245859305   0.137623460108   
      0.139115474822   0.140722230352   0.142443025705   0.14427583928   0.146217018131   
      0.148260964601   0.150399840779   0.15262331538   0.154918379898   0.157269260317   
      0.159657446664   0.162061855126   0.164459126907   0.166824055808   0.169130124392   
      0.171350118529   0.173456783772   0.175423485286   0.177224836047   0.178837264955   
      0.180239505753   0.181412997734   0.182342198265   0.18301481418   0.183421963224   
      0.183558277979   0.183421963224   0.18301481418   0.182342198265   0.181412997734   
      0.180239505753   0.178837264955   0.177224836047   0.175423485286   0.173456783772   
      0.171350118529   0.169130124392   0.166824055808   0.164459126907   0.162061855126   
      0.159657446664   0.157269260317   0.154918379898   0.15262331538   0.150399840779   
      0.148260964601   0.146217018131   0.14427583928   0.142443025705   0.140722230352   
      0.139115474822   0.137623460108   0.136245859305   0.134981582071   0.133829005244   
      0.132786167816   0.131850931251   0.131021108003   0.130294562098   0.129669286094   
      0.129143458641   0.128715486586   0.128384035028   0.128148048188   0.128006763385   
      0.134068622705   0.134121823925   0.1342816016   0.134548475726   0.134923305801   
      0.135407279093   0.13600189215   0.136708923482   0.137530394627   0.138468516178   
      0.139525614714   0.140704036072   0.142006020145   0.143433542535   0.144988119164   
      0.146670571519   0.148480752843   0.150417239326   0.152476995279   0.154655026963   
      0.156944045847   0.159334167493   0.161812676042   0.164363885134   0.166969123055   
      0.169606862479   0.172253003692   0.174881305929   0.177463946404   0.179972173339   
      0.182377010089   0.184649963931   0.186763695748   0.188692614967   0.190413375925   
      0.191905265231   0.193150482238   0.194134324921   0.194845300031   0.195275179128   
      0.195419021247   0.195275179128   0.194845300031   0.194134324921   0.193150482238   
      0.191905265231   0.190413375925   0.188692614967   0.186763695748   0.184649963931   
      0.182377010089   0.179972173339   0.177463946404   0.174881305929   0.172253003692   
      0.169606862479   0.166969123055   0.164363885134   0.161812676042   0.159334167493   
      0.156944045847   0.154655026963   0.152476995279   0.150417239326   0.148480752843   
      0.146670571519   0.144988119164   0.143433542535   0.142006020145   0.140704036072   
      0.139525614714   0.138468516178   0.137530394627   0.136708923482   0.13600189215   
      0.135407279093   0.134923305801   0.134548475726   0.1342816016   0.134121823925   
      0.138238444023   0.138295810281   0.138468095731   0.13875585789   0.139160017232   
      0.139681842966   0.140322930782   0.141085170183   0.141970698282   0.142981836207   
      0.14412100362   0.145390606357   0.146792892043   0.148329768869   0.150002583835   
      0.151811858789   0.153756985909   0.15583588877   0.158044660907   0.160377200267   
      0.162824864517   0.165376177647   0.168016621389   0.170728544336   0.173491216261   
      0.176281044807   0.179071957214   0.181835932837   0.184543655705   0.187165243023   
      0.189670997992   0.192032134787   0.194221430175   0.196213768358   0.197986560945   
      0.199520039709   0.200797433475   0.201805050533   0.202532293575   0.202971635362   
      0.20311858076   0.202971635362   0.202532293575   0.201805050533   0.200797433475   
      0.199520039709   0.197986560945   0.196213768358   0.194221430175   0.192032134787   
      0.189670997992   0.187165243023   0.184543655705   0.181835932837   0.179071957214   
      0.176281044807   0.173491216261   0.170728544336   0.168016621389   0.165376177647   
      0.162824864517   0.160377200267   0.158044660907   0.15583588877   0.153756985909   
      0.151811858789   0.150002583835   0.148329768869   0.146792892043   0.145390606357   
      0.14412100362   0.142981836207   0.141970698282   0.141085170183   0.140322930782   
      0.139681842966   0.139160017232   0.13875585789   0.138468095731   0.138295810281   
      0.140342408412   0.140401860411   0.140580409131   0.140878629964   0.141297472279   
      0.141838243772   0.14250258606   0.143292438982   0.144209990289   0.145257606665   
      0.146437741342   0.147752813121   0.149205051504   0.150796303123   0.152527795904   
      0.154399859804   0.156411606553   0.158560575812   0.160842361349   0.1632502377   
      0.165774814565   0.168403751553   0.171121568484   0.17390958484   0.176746015206   
      0.179606235548   0.182463219065   0.185288122202   0.188050984302   0.190721491379   
      0.193269748139   0.195667003788   0.197886285992   0.199902911607   0.201694859836   
      0.203243010149   0.204531261367   0.20554655794   0.206278854378   0.206721049012   
      0.206868914847   0.206721049012   0.206278854378   0.20554655794   0.204531261367   
      0.203243010149   0.201694859836   0.199902911607   0.197886285992   0.195667003788   
      0.193269748139   0.190721491379   0.188050984302   0.185288122202   0.182463219065   
      0.179606235548   0.176746015206   0.17390958484   0.171121568484   0.168403751553   
      0.165774814565   0.1632502377   0.160842361349   0.158560575812   0.156411606553   
      0.154399859804   0.152527795904   0.150796303123   0.149205051504   0.147752813121   
      0.146437741342   0.145257606665   0.144209990289   0.143292438982   0.14250258606   
      0.141838243772   0.141297472279   0.140878629964   0.140580409131   0.140401860411   
      0.140342408412   0.140401860411   0.140580409131   0.140878629964   0.141297472279   
      0.141838243772   0.14250258606   0.143292438982   0.144209990289   0.145257606665   
      0.146437741342   0.147752813121   0.149205051504   0.150796303123   0.152527795904   
      0.154399859804   0.156411606553   0.158560575812   0.160842361349   0.1632502377   
      0.165774814565   0.168403751553   0.171121568484   0.17390958484   0.176746015206   
      0.179606235548   0.182463219065   0.185288122202   0.188050984302   0.190721491379   
      0.193269748139   0.195667003788   0.197886285992   0.199902911607   0.201694859836   
      0.203243010149   0.204531261367   0.20554655794   0.206278854378   0.206721049012   
      0.206868914847   0.206721049012   0.206278854378   0.20554655794   0.204531261367   
      0.203243010149   0.201694859836   0.199902911607   0.197886285992   0.195667003788   
      0.193269748139   0.190721491379   0.188050984302   0.185288122202   0.182463219065   
      0.179606235548   0.176746015206   0.17390958484   0.171121568484   0.168403751553   
      0.165774814565   0.1632502377   0.160842361349   0.158560575812   0.156411606553   
      0.154399859804   0.152527795904   0.150796303123   0.149205051504   0.147752813121   
      0.146437741342   0.145257606665   0.144209990289   0.143292438982   0.14250258606   
      0.141838243772   0.141297472279   0.140878629964   0.140580409131   0.140401860411   
      0.138238444023   0.138295810281   0.138468095731   0.13875585789   0.139160017232   
      0.139681842966   0.140322930782   0.141085170183   0.141970698282   0.142981836207   
      0.14412100362   0.145390606357   0.146792892043   0.148329768869   0.150002583835   
      0.151811858789   0.153756985909   0.15583588877   0.158044660907   0.160377200267   
      0.162824864517   0.165376177647   0.168016621389   0.170728544336   0.173491216261   
      0.176281044807   0.179071957214   0.181835932837   0.184543655705   0.187165243023   
      0.189670997992   0.192032134787   0.194221430175   0.196213768358   0.197986560945   
      0.199520039709   0.200797433475   0.201805050533   0.202532293575   0.202971635362   
      0.20311858076   0.202971635362   0.202532293575   0.201805050533   0.200797433475   
      0.199520039709   0.197986560945   0.196213768358   0.194221430175   0.192032134787   
      0.189670997992   0.187165243023   0.184543655705   0.181835932837   0.179071957214   
      0.176281044807   0.173491216261   0.170728544336   0.168016621389   0.165376177647   
      0.162824864517   0.160377200267   0.158044660907   0.15583588877   0.153756985909   
      0.151811858789   0.150002583835   0.148329768869   0.146792892043   0.145390606357   
      0.14412100362   0.142981836207   0.141970698282   0.141085170183   0.140322930782   
      0.139681842966   0.139160017232   0.13875585789   0.138468095731   0.138295810281   
      0.134068622705   0.134121823925   0.1342816016   0.134548475726   0.134923305801   
      0.135407279093   0.13600189215   0.136708923482   0.137530394627   0.138468516178   
      0.139525614714   0.140704036072   0.142006020145   0.143433542535   0.144988119164   
      0.146670571519   0.148480752843   0.150417239326   0.152476995279   0.154655026963   
      0.156944045847   0.159334167493   0.161812676042   0.164363885134   0.166969123055   
      0.169606862479   0.172253003692   0.174881305929   0.177463946404   0.179972173339   
      0.182377010089   0.184649963931   0.186763695748   0.188692614967   0.190413375925   
      0.191905265231   0.193150482238   0.194134324921   0.194845300031   0.195275179128   
      0.195419021247   0.195275179128   0.194845300031   0.194134324921   0.193150482238   
      0.191905265231   0.190413375925   0.188692614967   0.186763695748   0.184649963931   
      0.182377010089   0.179972173339   0.177463946404   0.174881305929   0.172253003692   
      0.169606862479   0.166969123055   0.164363885134   0.161812676042   0.159334167493   
      0.156944045847   0.154655026963   0.152476995279   0.150417239326   0.148480752843   
      0.146670571519   0.144988119164   0.143433542535   0.142006020145   0.140704036072   
      0.139525614714   0.138468516178   0.137530394627   0.136708923482   0.13600189215   
      0.135407279093   0.134923305801   0.134548475726   0.1342816016   0.134121823925   
      0.127959719819   0.128006763385   0.128148048188   0.128384035028   0.128715486586   
      0.129143458641   0.129669286094   0.130294562098   0.131021108003   0.131850931251   
      0.132786167816   0.133829005244   0.134981582071   0.136245859305   0.137623460108   
      0.139115474822   0.140722230352   0.142443025705   0.14427583928   0.146217018131   
      0.148260964601   0.150399840779   0.15262331538   0.154918379898   0.157269260317   
      0.159657446664   0.162061855126   0.164459126907   0.166824055808   0.169130124392   
      0.171350118529   0.173456783772   0.175423485286   0.177224836047   0.178837264955   
      0.180239505753   0.181412997734   0.182342198265   0.18301481418   0.183421963224   
      0.183558277979   0.183421963224   0.18301481418   0.182342198265   0.181412997734   
      0.180239505753   0.178837264955   0.177224836047   0.175423485286   0.173456783772   
      0.171350118529   0.169130124392   0.166824055808   0.164459126907   0.162061855126   
      0.159657446664   0.157269260317   0.154918379898   0.15262331538   0.150399840779   
      0.148260964601   0.146217018131   0.14427583928   0.142443025705   0.140722230352   
      0.139115474822   0.137623460108   0.136245859305   0.134981582071   0.133829005244   
      0.132786167816   0.131850931251   0.131021108003   0.130294562098   0.129669286094   
      0.129143458641   0.128715486586   0.128384035028   0.128148048188   0.128006763385   
      0.120196755013   0.12023596048   0.120353704068   0.120550366322   0.120826577908   
      0.121183213637   0.121621382844   0.12214241482   0.122747837545   0.123439347535   
      0.1242187681   0.125087992926   0.126048911483   0.127103312643   0.128252762993   
      0.129498456892   0.130841036462   0.132280381545   0.133815372298   0.135443630455   
      0.137161249289   0.138962526517   0.140839718279   0.142782835339   0.14477950383   
      0.14681491185   0.148871859408   0.150930922847   0.152970736393   0.154968383976   
      0.156899885236   0.158740751969   0.160466586371   0.162053690752   0.163479660026   
      0.164723932551   0.165768280852   0.16659723028   0.167198399635   0.167562762441   
      0.167684830497   0.167562762441   0.167198399635   0.16659723028   0.165768280852   
      0.164723932551   0.163479660026   0.162053690752   0.160466586371   0.158740751969   
      0.156899885236   0.154968383976   0.152970736393   0.150930922847   0.148871859408   
      0.14681491185   0.14477950383   0.142782835339   0.140839718279   0.138962526517   
      0.137161249289   0.135443630455   0.133815372298   0.132280381545   0.130841036462   
      0.129498456892   0.128252762993   0.127103312643   0.126048911483   0.125087992926   
      0.1242187681   0.123439347535   0.122747837545   0.12214241482   0.121621382844   