<?xml version="1.0"?>
<VTKFile type="ImageData" version="0.1" byte_order="LittleEndian">
  <ImageData WholeExtent="0 79 0 19 0 19" Origin="0 0 0" Spacing="1 1 1">
  <Piece Extent="0 79 0 19 0 19">
    <PointData Scalars="density">
       <DataArray type="Float32" Name="reddensity" NumberOfComponents="1" format="ascii">
      0   0   0   0   0   
      0   0   0   0   0   
      0   0   0   0   0   
      0   0   0   0   0   
      0   0   0   0   0   
      0   0   0   0   0   
      0   0   0   0   0   
      0   0   0   0   0   
      0   0   0   0   0   
      0   0   0   0   0   
      0   0   0   0   0   
      0   0   0   0   0   
      0   0   0   0   0   
      0   0   0   0   0   
      0   0   0   0   0   
      0   0   0   0   0   
      0   0   0   0   0   
      0   0   0   0   0   
      0   0   0   0   0   
      0   0   0   0   0   
      0   0   0   0   0   
      0   0   0   0   0   
      0   0   0   0   0   
      0   0   0   0   0   
      0   0   0   0   0   
      0   0   0   0   0   
      0   0   0   0   0   
      0   0   0   0   0   
      0   0   0   0   0   
      0   0   0   0   0   
      0   0   0   0   0   
      0   0   0   0   0   
      0   0   0   0   0   
      0   0   0   0   0   
      0   0   0   0   0   
      0   0   0   0   0   
      0   0   0   0   0   
      0   0   0   0   0   
      0   0   0   0   0   
      0   0   0   0   0   
      0   0   0   0   0   
      0   0   0   0   0   
      0   0   0   0   0   
      0   0   0   0   0   
      0   0   0   0   0   
      0   0   0   0   0   
      0   0   0   0   0   
      0   0   0   0   0   
      0   0   0   0   0   
      0   0   0   0   0   
      0   0   0   0   0   
      0   0   0   0   0   
      0   0   0   0   0   
      0   0   0   0   0   
      0   0   0   0   0   
      0   0   0   0   0   
      0   0   0   0   0   
      0   0   0   0   0   
      0   0   0   0   0   
      0   0   0   0   0   
      0   0   0   0   0   
      0   0   0   0   0   
      0   0   0   0   0   
      0   0   0   0   0   
      0   0   0   0   0   
      0   0   0   0   0   
      0   0   0   0   0   
      0   0   0   0   0   
      0   0   0   0   0   
      0   0   0   0   0   
      0   0   0   0   0   
      0   0   0   0   0   
      0   0   0   0   0   
      0   0   0   0   0   
      0   0   0   0   0   
      0   0   0   0   0   
      0   0   0   0   0   
      0   0   0   0   0   
      0   0   0   0   0   
      0   0   0   0   0   
      0   0   0   0   0   
      0   0   0   0   0   
      0   0   0   0   0   
      0   0   0   0   0   
      0   0   0   0   0   
      0   0   0   0   0   
      0   0   0   0   0   
      0   0   0   0   0   
      0   0   0   0   0   
      0   0   0   0   0   
      0   0   0   0   0   
      0   0   0   0   0   
      0   0   0   0   0   
      0   0   0   0   0   
      0   0   0   0   0   
      0   0   0   0   0   
      0   0   0   0   0   
      0   0   0   0   0   
      0   0   0   0   0   
      0   0   0   0   0   
      0   0   0   0   0   
      0   0   0   0   0   
      0   0   0   0   0   
      0   0   0   0   0   
      0   0   0   0   0   
      0   0   0   0   0   
      0   0   0   0   0   
      0   0   0   0   0   
      0   0   0   0   0   
      0   0   0   0   0   
      0   0   0   0   0   
      0   0   0   0   0   
      0   0   0   0   0   
      0   0   0   0   0   
      0   0   0   0   0   
      0   0   0   0   0   
      0   0   0   0   0   
      0   0   0   0   0   
      0   0   0   0   0   
      0   0   0   0   0   
      0   0   0   0   0   
      0   0   0   0   0   
      0   0   0   0   0   
      0   0   0   0   0   
      0   0   0   0   0   
      0   0   0   0   0   
      0   0   0   0   0   
      0   0   0   0   0   
      0   0   0   0   0   
      0   0   0   0   0   
      0   0   0   0   0   
      0   0   0   0   0   
      0   0   0   0   0   
      0   0   0   0   0   
      0   0   0   0   0   
      0   0   0   0   0   
      0   0   0   0   0   
      0   0   0   0   0   
      0   0   0   0   0   
      0   0   0   0   0   
      0   0   0   0   0   
      0   0   0   0   0   
      0   0   0   0   0   
      0   0   0   0   0   
      0   0   0   0   0   
      0   0   0   0   0   
      0   0   0   0   0   
      0   0   0   0   0   
      0   0   0   0   0   
      0   0   0   0   0   
      0   0   0   0   0   
      0   0   0   0   0   
      0   0   0   0   0   
      0   0   0   0   0   
      0   0   0   0   0   
      0   0   0   0   0   
      0   0   0   0   0   
      0   0   0   0   0   
      0   0   0   0   0   
      0   0   0   0   0   
      0   0   0   0   0   
      0   0   0   0   0   
      0   0   0   0   0   
      0   0   0   0   0   
      0   0   0   0   0   
      0   0   0   0   0   
      0   0   0   0   0   
      0   0   0   0   0   
      0   0   0   0   0   
      0   0   0   0   0   
      0   0   0   0   0   
      0   0   0   0   0   
      0   0   0   0   0   
      0   0   0   0   0   
      0   0   0   0   0   
      0   0   0   0   0   
      0   0   0   0   0   
      0   0   0   0   0   
      0   0   0   0   0   
      0   0   0   0   0   
      0   0   0   0   0   
      0   0   0   0   0   
      0   0   0   0   0   
      0   0   0   0   0   
      0   0   0   0   0   
      0   0   0   0   0   
      0   0   0   0   0   
      0   0   0   0   0   
      0   0   0   0   0   
      0   0   0   0   0   
      0   0   0   0   0   
      0   0   0   0   0   
      0   0   0   0   0   
      0   0   0   0   0   
      0   0   0   0   0   
      0   0   0   0   0   
      0   0   0   0   0   
      0   0   0   0   0   
      0   0   0   0   0   
      0   0   0   0   0   
      0   0   0   0   0   
      0   0   0   0   0   
      0   0   0   0   0   
      0   0   0   0   0   
      0   0   0   0   0   
      0   0   0   0   0   
      0   0   0   0   0   
      0   0   0   0   0   
      0   0   0   0   0   
      0   0   0   0   0   
      0   0   0   0   0   
      0   0   0   0   0   
      0   0   0   0   0   
      0   0   0   0   0   
      0   0   0   0   0   
      0   0   0   0   0   
      0   0   0   0   0   
      0   0   0   0   0   
      0   0   0   0   0   
      0   0   0   0   0   
      0   0   0   0   0   
      0   0   0   0   0   
      0   0   0   0   0   
      0   0   0   0   0   
      0   0   0   0   0   
      0   0   0   0   0   
      0   0   0   0   0   
      0   0   0   0   0   
      0   0   0   0   0   
      0   0   0   0   0   
      0   0   0   0   0   
      0   0   0   0   0   
      0   0   0   0   0   
      0   0   0   0   0   
      0   0   0   0   0   
      0   0   0   0   0   
      0   0   0   0   0   
      0   0   0   0   0   
      0   0   0   0   0   
      0   0   0   0   0   
      0   0   0   0   0   
      0   0   0   0   0   
      0   0   0   0   0   
      0   0   0   0   0   
      0   0   0   0   0   
      0   0   0   0   0   
      0   0   0   0   0   
      0   0   0   0   0   
      0   0   0   0   0   
      0   0   0   0   0   
      0   0   0   0   0   
      0   0   0   0   0   
      0   0   0   0   0   
      0   0   0   0   0   
      0   0   0   0   0   
      0   0   0   0   0   
      0   0   0   0   0   
      0   0   0   0   0   
      0   0   0   0   0   
      0   0   0   0   0   
      0   0   0   0   0   
      0   0   0   0   0   
      0   0   0   0   0   
      0   0   0   0   0   
      0   0   0   0   0   
      0   0   0   0   0   
      0   0   0   0   0   
      0   0   0   0   0   
      0   0   0   0   0   
      0   0   0   0   0   
      0   0   0   0   0   
      0   0   0   0   0   
      0   0   0   0   0   
      0   0   0   0   0   
      0   0   0   0   0   
      0   0   0   0   0   
      0   0   0   0   0   
      0   0   0   0   0   
      0   0   0   0   0   
      0   0   0   0   0   
      0   0   0   0   0   
      0   0   0   0   0   
      0   0   0   0   0   
      0   0   0   0   0   
      0   0   0   0   0   
      0   0   0   0   0   
      0   0   0   0   0   
      0   0   0   0   0   
      0   0   0   0   0   
      0   0   0   0   0   
      0   0   0   0   0   
      0   0   0   0   0   
      0   0   0   0   0   
      0   0   0   0   0   
      0   0   0   0   0   
      0   0   0   0   0   
      0   0   0   0   0   
      0   0   0   0   0   
      0   0   0   0   0   
      0   0   0   0   0   
      0   0   0   0   0   
      0   0   0   0   0   
      0   0   0   0   0   
      0   0   0   0   0   
      0   0   0   0   0   
      0   0   0   0   0   
      0   0   0   0   0   
      0   0   0   0   0   
      0   0   0   0   0   
      0   0   0   0   0   
      0   0   0   0   0   
      0   0   0   0   0   
      0   0   0   0   0   
      0   0   0   0   0   
      0   0   0   0   0   
      0   0   0   0   0   
      0   0   0   0   0   
      0   0   0   0   0   
      0   0   0   0   0   
      0   0   0   0   0   
      0   0   0   0   0   
      0   0   0   0   0   
      0   0   0   0   0   
      0   0   0   0   0   
      0   0   0   0   0   
      0   0   0   0   0   
      0   0   0   0   0   
      0   0   0   0   0   
      0   0   0   0   0   
      0   0   0   0   0   
      0   0   0   0   0   
      0   0   0   0   0   
      0   0   0   0   0   
      0   0   0   0   0   
      0   0   0   0   0   
      0   0   0   0   0   
      0.082104390152   0.0821124319658   0.0821365660502   0.0821768180381   0.0822332296421   
      0.0823058570755   0.0823947687076   0.0825000418183   0.0826217582782   0.0827599989408   
      0.0829148364997   0.0830863265349   0.0832744964557   0.0834793320502   0.0837007613768   
      0.0839386357945   0.0841927080305   0.0844626073337   0.0847478119688   0.0850476195632   
      0.0853611161229   0.0856871448744   0.0860242764396   0.0863707821792   0.0867246128164   
      0.0870833846217   0.0874443754769   0.0878045329913   0.0881604965046   0.0885086342653   
      0.088845096339   0.0891658829165   0.089466926706   0.0897441870897   0.0899937527782   
      0.0902119488901   0.0903954437971   0.0905413507634   0.0906473194136   0.090711612394   
      0.0907331632415   0.090711612394   0.0906473194136   0.0905413507634   0.0903954437971   
      0.0902119488901   0.0899937527782   0.0897441870897   0.089466926706   0.0891658829165   
      0.088845096339   0.0885086342653   0.0881604965046   0.0878045329913   0.0874443754769   
      0.0870833846217   0.0867246128164   0.0863707821792   0.0860242764396   0.0856871448744   
      0.0853611161229   0.0850476195632   0.0847478119688   0.0844626073337   0.0841927080305   
      0.0839386357945   0.0837007613768   0.0834793320502   0.0832744964557   0.0830863265349   
      0.0829148364997   0.0827599989408   0.0826217582782   0.0825000418183   0.0823947687076   
      0.0823058570755   0.0822332296421   0.0821768180381   0.0821365660502   0.0821124319658   
      0.0899782862548   0.0899897090002   0.0900239923236   0.0900811810323   0.0901613482614   
      0.0902645930589   0.0903910368043   0.0905408182597   0.0907140869923   0.090910994854   
      0.0911316851493   0.0913762790877   0.0916448590909   0.0919374485331   0.0922539875362   
      0.0925943045362   0.0929580834926   0.0933448268456   0.0937538146294   0.0941840605422   
      0.0946342662221   0.0951027754837   0.0955875307753   0.0960860345952   0.0965953189822   
      0.097111926419   0.0976319054955   0.0981508244184   0.098663804908   0.0991655781755   
      0.0996505635694   0.100112969175   0.10054691223   0.100946555821   0.101306257004   
      0.101620720464   0.101885151058   0.102095398292   0.102248085812   0.102340719606   
      0.102371769467   0.102340719606   0.102248085812   0.102095398292   0.101885151058   
      0.101620720464   0.101306257004   0.100946555821   0.10054691223   0.100112969175   
      0.0996505635694   0.0991655781755   0.098663804908   0.0981508244184   0.0976319054955   
      0.097111926419   0.0965953189822   0.0960860345952   0.0955875307753   0.0951027754837   
      0.0946342662221   0.0941840605422   0.0937538146294   0.0933448268456   0.0929580834926   
      0.0925943045362   0.0922539875362   0.0919374485331   0.0916448590909   0.0913762790877   
      0.0911316851493   0.090910994854   0.0907140869923   0.0905408182597   0.0903910368043   
      0.0902645930589   0.0901613482614   0.0900811810323   0.0900239923236   0.0899897090002   
      0.103215070321   0.103233554277   0.103289035255   0.103381599777   0.1035113893   
      0.103678595919   0.103883456005   0.10412624143   0.104407247921   0.10472678001   
      0.105085131953   0.105482563932   0.105919272824   0.106395356865   0.106910773591   
      0.107465290668   0.108058429478   0.108689401781   0.109357040281   0.110059724666   
      0.110795305407   0.111561028491   0.112353465072   0.113168450756   0.114001039754   
      0.114845479395   0.115695210264   0.116542896636   0.117380490722   0.118199332694   
      0.11899028649   0.11974390929   0.120450650297   0.121101072426   0.121686088759   
      0.122197204303   0.122626752915   0.122968119079   0.12321593475   0.123366242447   
      0.123416617282   0.123366242447   0.12321593475   0.122968119079   0.122626752915   
      0.122197204303   0.121686088759   0.121101072426   0.120450650297   0.11974390929   
      0.11899028649   0.118199332694   0.117380490722   0.116542896636   0.115695210264   
      0.114845479395   0.114001039754   0.113168450756   0.112353465072   0.111561028491   
      0.110795305407   0.110059724666   0.109357040281   0.108689401781   0.108058429478   
      0.107465290668   0.106910773591   0.106395356865   0.105919272824   0.105482563932   
      0.105085131953   0.10472678001   0.104407247921   0.10412624143   0.103883456005   
      0.103678595919   0.1035113893   0.103381599777   0.103289035255   0.103233554277   
      0.113833141428   0.113859260884   0.113937663714   0.114068482032   0.114251931725   
      0.114488305737   0.114777964135   0.115121320442   0.115518823551   0.115970934433   
      0.116478096726   0.117040700203   0.117659036152   0.118333243727   0.119063246539   
      0.119848679076   0.120688803064   0.121582414524   0.122527743211   0.123522347125   
      0.124563005975   0.125645618631   0.126765110732   0.127915359432   0.129089142745   
      0.13027812088   0.131472856178   0.132662876923   0.133836788183   0.134982430313   
      0.136087082877   0.137137708855   0.138121231333   0.139024832734   0.139836265132   
      0.140544159451   0.141138321427   0.141610002848   0.141952137911   0.14215953606   
      0.142229024576   0.14215953606   0.141952137911   0.141610002848   0.141138321427   
      0.140544159451   0.139836265132   0.139024832734   0.138121231333   0.137137708855   
      0.136087082877   0.134982430313   0.133836788183   0.132662876923   0.131472856178   
      0.13027812088   0.129089142745   0.127915359432   0.126765110732   0.125645618631   
      0.124563005975   0.123522347125   0.122527743211   0.121582414524   0.120688803064   
      0.119848679076   0.119063246539   0.118333243727   0.117659036152   0.117040700203   
      0.116478096726   0.115970934433   0.115518823551   0.115121320442   0.114777964135   
      0.114488305737   0.114251931725   0.114068482032   0.113937663714   0.113859260884   
      0.12367738384   0.123711207838   0.12381273882   0.123982151921   0.124219732842   
      0.124525868192   0.124901031254   0.125345762436   0.125860643507   0.126446264547   
      0.12710318241   0.127831869426   0.128632651129   0.129505631936   0.130450608041   
      0.131466967349   0.132553577036   0.133708660375   0.134929665725   0.136213132062   
      0.137554556928   0.138948274178   0.140387350061   0.14186350695   0.14336708402   
      0.144887043405   0.146411028653   0.147925479702   0.149415805359   0.150866610624   
      0.152261972557   0.153585755165   0.15482195132   0.155955038226   0.156970332589   
      0.157854332254   0.158595032525   0.159182207358   0.159607647747   0.159865351771   
      0.159951662543   0.159865351771   0.159607647747   0.159182207358   0.158595032525   
      0.157854332254   0.156970332589   0.155955038226   0.15482195132   0.153585755165   
      0.152261972557   0.150866610624   0.149415805359   0.147925479702   0.146411028653   
      0.144887043405   0.14336708402   0.14186350695   0.140387350061   0.138948274178   
      0.137554556928   0.136213132062   0.134929665725   0.133708660375   0.132553577036   
      0.131466967349   0.130450608041   0.129505631936   0.128632651129   0.127831869426   
      0.12710318241   0.126446264547   0.125860643507   0.125345762436   0.124901031254   
      0.124525868192   0.124219732842   0.123982151921   0.12381273882   0.123711207838   
      0.13216628459   0.132206892002   0.132328784264   0.132532169031   0.13281738416   
      0.133184884901   0.133635225045   0.134169031132   0.134786968582   0.135489698452   
      0.136277823369   0.137151821177   0.138111964953   0.139158228324   0.140290175555   
      0.141506836702   0.142806569203   0.144186908724   0.145644413746   0.147174510179   
      0.148771344147   0.150427652604   0.152134662546   0.153882029849   0.155657828014   
      0.157448595261   0.159239445407   0.161014244067   0.162755847299   0.164446395337   
      0.166067650108   0.167601362347   0.169029652503   0.170335389626   0.17150255371   
      0.172516569415   0.173364602092   0.174035810255   0.174521551504   0.174815541123   
      0.174913964009   0.174815541123   0.174521551504   0.174035810255   0.173364602092   
      0.172516569415   0.17150255371   0.170335389626   0.169029652503   0.167601362347   
      0.166067650108   0.164446395337   0.162755847299   0.161014244067   0.159239445407   
      0.157448595261   0.155657828014   0.153882029849   0.152134662546   0.150427652604   
      0.148771344147   0.147174510179   0.145644413746   0.144186908724   0.142806569203   
      0.141506836702   0.140290175555   0.139158228324   0.138111964953   0.137151821177   
      0.136277823369   0.135489698452   0.134786968582   0.134169031132   0.133635225045   
      0.133184884901   0.13281738416   0.132532169031   0.132328784264   0.132206892002   
      0.138848197239   0.138894114695   0.139031944093   0.139261913518   0.139584392951   
      0.13999987848   0.140508969127   0.141112335221   0.14181067705   0.142604672264   
      0.143494910471   0.144481813427   0.145565539474   0.146745871308   0.148022086887   
      0.149392814388   0.150855873526   0.152408107323   0.154045210419   0.155761562114   
      0.157550074255   0.159402065611   0.161307175073   0.163253325663   0.165226749663   
      0.167212082144   0.169192525951   0.171150086128   0.173065866498   0.174920416248   
      0.176694110616   0.178367547666   0.17992194287   0.181339504831   0.182603778521   
      0.183699946488   0.184615082779   0.185338358359   0.185861199958   0.186177406357   
      0.186283226862   0.186177406357   0.185861199958   0.185338358359   0.184615082779   
      0.183699946488   0.182603778521   0.181339504831   0.17992194287   0.178367547666   
      0.176694110616   0.174920416248   0.173065866498   0.171150086128   0.169192525951   
      0.167212082144   0.165226749663   0.163253325663   0.161307175073   0.159402065611   
      0.157550074255   0.155761562114   0.154045210419   0.152408107323   0.150855873526   
      0.149392814388   0.148022086887   0.146745871308   0.145565539474   0.144481813427   
      0.143494910471   0.142604672264   0.14181067705   0.141112335221   0.140508969127   
      0.13999987848   0.139584392951   0.139261913518   0.139031944093   0.138894114695   
      0.143406716781   0.143456212886   0.143604781866   0.143852662264   0.144200239975   
      0.144648030132   0.145196650553   0.145846785604   0.146599139078   0.147454374464   
      0.148413040959   0.1494754836   0.150641736228   0.151911396545   0.15328348346   
      0.154756278183   0.156327152222   0.157992387452   0.159746995626   0.161584546992   
      0.163497019588   0.165474682167   0.16750602401   0.169577743912   0.171674808104   
      0.173780582954   0.175877043035   0.1779450494   0.179964687065   0.181915645857   
      0.183777625454   0.185530744193   0.187155932193   0.188635292289   0.189952416677   
      0.191092652313   0.192043313254   0.192793842482   0.193335928982   0.193663587556   
      0.193773209049   0.193663587556   0.193335928982   0.192793842482   0.192043313254   
      0.191092652313   0.189952416677   0.188635292289   0.187155932193   0.185530744193   
      0.183777625454   0.181915645857   0.179964687065   0.1779450494   0.175877043035   
      0.173780582954   0.171674808104   0.169577743912   0.16750602401   0.165474682167   
      0.163497019588   0.161584546992   0.159746995626   0.157992387452   0.156327152222   
      0.154756278183   0.15328348346   0.151911396545   0.150641736228   0.1494754836   
      0.148413040959   0.147454374464   0.146599139078   0.145846785604   0.145196650553   
      0.144648030132   0.144200239975   0.143852662264   0.143604781866   0.143456212886   
      0.145705610989   0.145756894319   0.145910826391   0.146167649758   0.146527756159   
      0.14699166713   0.147560005599   0.148233457289   0.14901272045   0.149898442277   
      0.150891140307   0.151991107197   0.153198297625   0.154512196738   0.155931670532   
      0.157454800007   0.15907870272   0.160799347493   0.162611370414   0.164507902526   
      0.166480421565   0.168518641327   0.170610452297   0.172741925824   0.174897391177   
      0.177059590261   0.179209909186   0.181328679594   0.183395536766   0.18538981667   
      0.187290971148   0.189078979745   0.19073473835   0.192240408503   0.193579716346   
      0.19473819586   0.195703376491   0.196464919802   0.197014712906   0.197346927931   
      0.197458056655   0.197346927931   0.197014712906   0.196464919802   0.195703376491   
      0.19473819586   0.193579716346   0.192240408503   0.19073473835   0.189078979745   
      0.187290971148   0.18538981667   0.183395536766   0.181328679594   0.179209909186   
      0.177059590261   0.174897391177   0.172741925824   0.170610452297   0.168518641327   
      0.166480421565   0.164507902526   0.162611370414   0.160799347493   0.15907870272   
      0.157454800007   0.155931670532   0.154512196738   0.153198297625   0.151991107197   
      0.150891140307   0.149898442277   0.14901272045   0.148233457289   0.147560005599   
      0.14699166713   0.146527756159   0.146167649758   0.145910826391   0.145756894319   
      0.145705610989   0.145756894319   0.145910826391   0.146167649758   0.146527756159   
      0.14699166713   0.147560005599   0.148233457289   0.14901272045   0.149898442277   
      0.150891140307   0.151991107197   0.153198297625   0.154512196738   0.155931670532   
      0.157454800007   0.15907870272   0.160799347493   0.162611370414   0.164507902526   
      0.166480421565   0.168518641327   0.170610452297   0.172741925824   0.174897391177   
      0.177059590261   0.179209909186   0.181328679594   0.183395536766   0.18538981667   
      0.187290971148   0.189078979745   0.19073473835   0.192240408503   0.193579716346   
      0.19473819586   0.195703376491   0.196464919802   0.197014712906   0.197346927931   
      0.197458056655   0.197346927931   0.197014712906   0.196464919802   0.195703376491   
      0.19473819586   0.193579716346   0.192240408503   0.19073473835   0.189078979745   
      0.187290971148   0.18538981667   0.183395536766   0.181328679594   0.179209909186   
      0.177059590261   0.174897391177   0.172741925824   0.170610452297   0.168518641327   
      0.166480421565   0.164507902526   0.162611370414   0.160799347493   0.15907870272   
      0.157454800007   0.155931670532   0.154512196738   0.153198297625   0.151991107197   
      0.150891140307   0.149898442277   0.14901272045   0.148233457289   0.147560005599   
      0.14699166713   0.146527756159   0.146167649758   0.145910826391   0.145756894319   
      0.143406716781   0.143456212886   0.143604781866   0.143852662264   0.144200239975   
      0.144648030132   0.145196650553   0.145846785604   0.146599139078   0.147454374464   
      0.148413040959   0.1494754836   0.150641736228   0.151911396545   0.15328348346   
      0.154756278183   0.156327152222   0.157992387452   0.159746995626   0.161584546992   
      0.163497019588   0.165474682167   0.16750602401   0.169577743912   0.171674808104   
      0.173780582954   0.175877043035   0.1779450494   0.179964687065   0.181915645857   
      0.183777625454   0.185530744193   0.187155932193   0.188635292289   0.189952416677   
      0.191092652313   0.192043313254   0.192793842482   0.193335928982   0.193663587556   
      0.193773209049   0.193663587556   0.193335928982   0.192793842482   0.192043313254   
      0.191092652313   0.189952416677   0.188635292289   0.187155932193   0.185530744193   
      0.183777625454   0.181915645857   0.179964687065   0.1779450494   0.175877043035   
      0.173780582954   0.171674808104   0.169577743912   0.16750602401   0.165474682167   
      0.163497019588   0.161584546992   0.159746995626   0.157992387452   0.156327152222   
      0.154756278183   0.15328348346   0.151911396545   0.150641736228   0.1494754836   
      0.148413040959   0.147454374464   0.146599139078   0.145846785604   0.145196650553   
      0.144648030132   0.144200239975   0.143852662264   0.143604781866   0.143456212886   
      0.138848197239   0.138894114695   0.139031944093   0.139261913518   0.139584392951   
      0.13999987848   0.140508969127   0.141112335221   0.14181067705   0.142604672264   
      0.143494910471   0.144481813427   0.145565539474   0.146745871308   0.148022086887   
      0.149392814388   0.150855873526   0.152408107323   0.154045210419   0.155761562114   
      0.157550074255   0.159402065611   0.161307175073   0.163253325663   0.165226749663   
      0.167212082144   0.169192525951   0.171150086128   0.173065866498   0.174920416248   
      0.176694110616   0.178367547666   0.17992194287   0.181339504831   0.182603778521   
      0.183699946488   0.184615082779   0.185338358359   0.185861199958   0.186177406357   
      0.186283226862   0.186177406357   0.185861199958   0.185338358359   0.184615082779   
      0.183699946488   0.182603778521   0.181339504831   0.17992194287   0.178367547666   
      0.176694110616   0.174920416248   0.173065866498   0.171150086128   0.169192525951   
      0.167212082144   0.165226749663   0.163253325663   0.161307175073   0.159402065611   
      0.157550074255   0.155761562114   0.154045210419   0.152408107323   0.150855873526   
      0.149392814388   0.148022086887   0.146745871308   0.145565539474   0.144481813427   
      0.143494910471   0.142604672264   0.14181067705   0.141112335221   0.140508969127   
      0.13999987848   0.139584392951   0.139261913518   0.139031944093   0.138894114695   
      0.13216628459   0.132206892002   0.132328784264   0.132532169031   0.13281738416   
      0.133184884901   0.133635225045   0.134169031132   0.134786968582   0.135489698452   
      0.136277823369   0.137151821177   0.138111964953   0.139158228324   0.140290175555   
      0.141506836702   0.142806569203   0.144186908724   0.145644413746   0.147174510179   
      0.148771344147   0.150427652604   0.152134662546   0.153882029849   0.155657828014   
      0.157448595261   0.159239445407   0.161014244067   0.162755847299   0.164446395337   
      0.166067650108   0.167601362347   0.169029652503   0.170335389626   0.17150255371   
      0.172516569415   0.173364602092   0.174035810255   0.174521551504   0.174815541123   
      0.174913964009   0.174815541123   0.174521551504   0.174035810255   0.173364602092   
      0.172516569415   0.17150255371   0.170335389626   0.169029652503   0.167601362347   
      0.166067650108   0.164446395337   0.162755847299   0.161014244067   0.159239445407   
      0.157448595261   0.155657828014   0.153882029849   0.152134662546   0.150427652604   
      0.148771344147   0.147174510179   0.145644413746   0.144186908724   0.142806569203   
      0.141506836702   0.140290175555   0.139158228324   0.138111964953   0.137151821177   
      0.136277823369   0.135489698452   0.134786968582   0.134169031132   0.133635225045   
      0.133184884901   0.13281738416   0.132532169031   0.132328784264   0.132206892002   
      0.12367738384   0.123711207838   0.12381273882   0.123982151921   0.124219732842   
      0.124525868192   0.124901031254   0.125345762436   0.125860643507   0.126446264547   
      0.12710318241   0.127831869426   0.128632651129   0.129505631936   0.130450608041   
      0.131466967349   0.132553577036   0.133708660375   0.134929665725   0.136213132062   
      0.137554556928   0.138948274178   0.140387350061   0.14186350695   0.14336708402   
      0.144887043405   0.146411028653   0.147925479702   0.149415805359   0.150866610624   
      0.152261972557   0.153585755165   0.15482195132   0.155955038226   0.156970332589   
      0.157854332254   0.158595032525   0.159182207358   0.159607647747   0.159865351771   
      0.159951662543   0.159865351771   0.159607647747   0.159182207358   0.158595032525   
      0.157854332254   0.156970332589   0.155955038226   0.15482195132   0.153585755165   
      0.152261972557   0.150866610624   0.149415805359   0.147925479702   0.146411028653   
      0.144887043405   0.14336708402   0.14186350695   0.140387350061   0.138948274178   
      0.137554556928   0.136213132062   0.134929665725   0.133708660375   0.132553577036   
      0.131466967349   0.130450608041   0.129505631936   0.128632651129   0.127831869426   
      0.12710318241   0.126446264547   0.125860643507   0.125345762436   0.124901031254   