<?xml version="1.0"?>
<VTKFile type="ImageData" version="0.1" byte_order="LittleEndian">
  <ImageData WholeExtent="0 79 0 19 0 19" Origin="0 0 0" Spacing="1 1 1">
  <Piece Extent="0 79 0 19 0 19">
    <PointData Scalars="density">
       <DataArray type="Float32" Name="reddensity" NumberOfComponents="1" format="ascii">
      0   0   0   0   0   
      0   0   0   0   0   
      0   0   0   0   0   
      0   0   0   0   0   
      0   0   0   0   0   
      0   0   0   0   0   
      0   0   0   0   0   
      0   0   0   0   0   
      0   0   0   0   0   
      0   0   0   0   0   
      0   0   0   0   0   
      0   0   0   0   0   
      0   0   0   0   0   
      0   0   0   0   0   
      0   0   0   0   0   
      0   0   0   0   0   
      0   0   0   0   0   
      0   0   0   0   0   
      0   0   0   0   0   
      0   0   0   0   0   
      0   0   0   0   0   
      0   0   0   0   0   
      0   0   0   0   0   
      0   0   0   0   0   
      0   0   0   0   0   
      0   0   0   0   0   
      0   0   0   0   0   
      0   0   0   0   0   
      0   0   0   0   0   
      0   0   0   0   0   
      0   0   0   0   0   
      0   0   0   0   0   
      0   0   0   0   0   
      0   0   0   0   0   
      0   0   0   0   0   
      0   0   0   0   0   
      0   0   0   0   0   
      0   0   0   0   0   
      0   0   0   0   0   
      0   0   0   0   0   
      0   0   0   0   0   
      0   0   0   0   0   
      0   0   0   0   0   
      0   0   0   0   0   
      0   0   0   0   0   
      0   0   0   0   0   
      0   0   0   0   0   
      0   0   0   0   0   
      0   0   0   0   0   
      0   0   0   0   0   
      0   0   0   0   0   
      0   0   0   0   0   
      0   0   0   0   0   
      0   0   0   0   0   
      0   0   0   0   0   
      0   0   0   0   0   
      0   0   0   0   0   
      0   0   0   0   0   
      0   0   0   0   0   
      0   0   0   0   0   
      0   0   0   0   0   
      0   0   0   0   0   
      0   0   0   0   0   
      0   0   0   0   0   
      0   0   0   0   0   
      0   0   0   0   0   
      0   0   0   0   0   
      0   0   0   0   0   
      0   0   0   0   0   
      0   0   0   0   0   
      0   0   0   0   0   
      0   0   0   0   0   
      0   0   0   0   0   
      0   0   0   0   0   
      0   0   0   0   0   
      0   0   0   0   0   
      0   0   0   0   0   
      0   0   0   0   0   
      0   0   0   0   0   
      0   0   0   0   0   
      0   0   0   0   0   
      0   0   0   0   0   
      0   0   0   0   0   
      0   0   0   0   0   
      0   0   0   0   0   
      0   0   0   0   0   
      0   0   0   0   0   
      0   0   0   0   0   
      0   0   0   0   0   
      0   0   0   0   0   
      0   0   0   0   0   
      0   0   0   0   0   
      0   0   0   0   0   
      0   0   0   0   0   
      0   0   0   0   0   
      0   0   0   0   0   
      0   0   0   0   0   
      0   0   0   0   0   
      0   0   0   0   0   
      0   0   0   0   0   
      0   0   0   0   0   
      0   0   0   0   0   
      0   0   0   0   0   
      0   0   0   0   0   
      0   0   0   0   0   
      0   0   0   0   0   
      0   0   0   0   0   
      0   0   0   0   0   
      0   0   0   0   0   
      0   0   0   0   0   
      0   0   0   0   0   
      0   0   0   0   0   
      0   0   0   0   0   
      0   0   0   0   0   
      0   0   0   0   0   
      0   0   0   0   0   
      0   0   0   0   0   
      0   0   0   0   0   
      0   0   0   0   0   
      0   0   0   0   0   
      0   0   0   0   0   
      0   0   0   0   0   
      0   0   0   0   0   
      0   0   0   0   0   
      0   0   0   0   0   
      0   0   0   0   0   
      0   0   0   0   0   
      0   0   0   0   0   
      0   0   0   0   0   
      0   0   0   0   0   
      0   0   0   0   0   
      0   0   0   0   0   
      0   0   0   0   0   
      0   0   0   0   0   
      0   0   0   0   0   
      0   0   0   0   0   
      0   0   0   0   0   
      0   0   0   0   0   
      0   0   0   0   0   
      0   0   0   0   0   
      0   0   0   0   0   
      0   0   0   0   0   
      0   0   0   0   0   
      0   0   0   0   0   
      0   0   0   0   0   
      0   0   0   0   0   
      0   0   0   0   0   
      0   0   0   0   0   
      0   0   0   0   0   
      0   0   0   0   0   
      0   0   0   0   0   
      0   0   0   0   0   
      0   0   0   0   0   
      0   0   0   0   0   
      0   0   0   0   0   
      0   0   0   0   0   
      0   0   0   0   0   
      0   0   0   0   0   
      0   0   0   0   0   
      0   0   0   0   0   
      0   0   0   0   0   
      0   0   0   0   0   
      0   0   0   0   0   
      0   0   0   0   0   
      0   0   0   0   0   
      0   0   0   0   0   
      0   0   0   0   0   
      0   0   0   0   0   
      0   0   0   0   0   
      0   0   0   0   0   
      0   0   0   0   0   
      0   0   0   0   0   
      0   0   0   0   0   
      0   0   0   0   0   
      0   0   0   0   0   
      0   0   0   0   0   
      0   0   0   0   0   
      0   0   0   0   0   
      0   0   0   0   0   
      0   0   0   0   0   
      0   0   0   0   0   
      0   0   0   0   0   
      0   0   0   0   0   
      0   0   0   0   0   
      0   0   0   0   0   
      0   0   0   0   0   
      0   0   0   0   0   
      0   0   0   0   0   
      0   0   0   0   0   
      0   0   0   0   0   
      0   0   0   0   0   
      0   0   0   0   0   
      0   0   0   0   0   
      0   0   0   0   0   
      0   0   0   0   0   
      0   0   0   0   0   
      0   0   0   0   0   
      0   0   0   0   0   
      0   0   0   0   0   
      0   0   0   0   0   
      0   0   0   0   0   
      0   0   0   0   0   
      0   0   0   0   0   
      0   0   0   0   0   
      0   0   0   0   0   
      0   0   0   0   0   
      0   0   0   0   0   
      0   0   0   0   0   
      0   0   0   0   0   
      0   0   0   0   0   
      0   0   0   0   0   
      0   0   0   0   0   
      0   0   0   0   0   
      0   0   0   0   0   
      0   0   0   0   0   
      0   0   0   0   0   
      0   0   0   0   0   
      0   0   0   0   0   
      0   0   0   0   0   
      0   0   0   0   0   
      0   0   0   0   0   
      0   0   0   0   0   
      0   0   0   0   0   
      0   0   0   0   0   
      0   0   0   0   0   
      0   0   0   0   0   
      0   0   0   0   0   
      0   0   0   0   0   
      0   0   0   0   0   
      0   0   0   0   0   
      0   0   0   0   0   
      0   0   0   0   0   
      0   0   0   0   0   
      0   0   0   0   0   
      0   0   0   0   0   
      0   0   0   0   0   
      0   0   0   0   0   
      0   0   0   0   0   
      0   0   0   0   0   
      0   0   0   0   0   
      0   0   0   0   0   
      0   0   0   0   0   
      0   0   0   0   0   
      0   0   0   0   0   
      0   0   0   0   0   
      0   0   0   0   0   
      0   0   0   0   0   
      0   0   0   0   0   
      0   0   0   0   0   
      0   0   0   0   0   
      0   0   0   0   0   
      0   0   0   0   0   
      0   0   0   0   0   
      0   0   0   0   0   
      0   0   0   0   0   
      0   0   0   0   0   
      0   0   0   0   0   
      0   0   0   0   0   
      0   0   0   0   0   
      0   0   0   0   0   
      0   0   0   0   0   
      0   0   0   0   0   
      0   0   0   0   0   
      0   0   0   0   0   
      0   0   0   0   0   
      0   0   0   0   0   
      0   0   0   0   0   
      0   0   0   0   0   
      0   0   0   0   0   
      0   0   0   0   0   
      0   0   0   0   0   
      0   0   0   0   0   
      0   0   0   0   0   
      0   0   0   0   0   
      0   0   0   0   0   
      0   0   0   0   0   
      0   0   0   0   0   
      0   0   0   0   0   
      0   0   0   0   0   
      0   0   0   0   0   
      0   0   0   0   0   
      0   0   0   0   0   
      0   0   0   0   0   
      0   0   0   0   0   
      0   0   0   0   0   
      0   0   0   0   0   
      0   0   0   0   0   
      0   0   0   0   0   
      0   0   0   0   0   
      0   0   0   0   0   
      0   0   0   0   0   
      0   0   0   0   0   
      0   0   0   0   0   
      0   0   0   0   0   
      0   0   0   0   0   
      0   0   0   0   0   
      0   0   0   0   0   
      0   0   0   0   0   
      0   0   0   0   0   
      0   0   0   0   0   
      0   0   0   0   0   
      0   0   0   0   0   
      0   0   0   0   0   
      0   0   0   0   0   
      0   0   0   0   0   
      0   0   0   0   0   
      0   0   0   0   0   
      0   0   0   0   0   
      0   0   0   0   0   
      0   0   0   0   0   
      0   0   0   0   0   
      0   0   0   0   0   
      0   0   0   0   0   
      0   0   0   0   0   
      0   0   0   0   0   
      0   0   0   0   0   
      0   0   0   0   0   
      0   0   0   0   0   
      0   0   0   0   0   
      0   0   0   0   0   
      0   0   0   0   0   
      0   0   0   0   0   
      0   0   0   0   0   
      0   0   0   0   0   
      0   0   0   0   0   
      0   0   0   0   0   
      0   0   0   0   0   
      0   0   0   0   0   
      0   0   0   0   0   
      0   0   0   0   0   
      0   0   0   0   0   
      0   0   0   0   0   
      0   0   0   0   0   
      0   0   0   0   0   
      0   0   0   0   0   
      0   0   0   0   0   
      0.083796272871   0.0838007875597   0.0838143217247   0.0838368454638   0.0838683082784   
      0.0839086380828   0.0839577398202   0.0840154936913   0.0840817530046   0.0841563416622   
      0.0842390513039   0.0843296381412   0.0844278195268   0.0845332703171   0.0846456191071   
      0.0847644444334   0.0848892710641   0.085019566516   0.0851547379629   0.0852941297175   
      0.0854370214866   0.0855826276122   0.0857300975137   0.0858785175415   0.0860269144359   
      0.0861742605562   0.0863194810033   0.0864614627006   0.0865990654349   0.086731134776   
      0.0868565167121   0.0869740737482   0.0870827021297   0.0871813497715   0.0872690344115   
      0.0873448614513   0.0874080409266   0.0874579030442   0.0874939117473   0.0875156758264   
      0.0875229571671   0.0875156758264   0.0874939117473   0.0874579030442   0.0874080409266   
      0.0873448614513   0.0872690344115   0.0871813497715   0.0870827021297   0.0869740737482   
      0.0868565167121   0.086731134776   0.0865990654349   0.0864614627006   0.0863194810033   
      0.0861742605562   0.0860269144359   0.0858785175415   0.0857300975137   0.0855826276122   
      0.0854370214866   0.0852941297175   0.0851547379629   0.085019566516   0.0848892710641   
      0.0847644444334   0.0846456191071   0.0845332703171   0.0844278195268   0.0843296381412   
      0.0842390513039   0.0841563416622   0.0840817530046   0.0840154936913   0.0839577398202   
      0.0839086380828   0.0838683082784   0.0838368454638   0.0838143217247   0.0838007875597   
      0.0924183631458   0.0924248293727   0.0924442144651   0.0924764773585   0.0925215486182   
      0.0925793289496   0.0926496871192   0.0927324572937   0.0928274358114   0.0929343774087   
      0.0930529909344   0.0931829346018   0.0933238108452   0.0934751608697   0.093636459012   
      0.093807107054   0.0939864286692   0.0941736642075   0.0943679660631   0.0945683948924   
      0.0947739169802   0.0949834030612   0.0951956289148   0.0954092780375   0.0956229466745   
      0.0958351514454   0.0960443397391   0.096248902967   0.0964471926653   0.096637539325   
      0.0968182737004   0.0969877502247   0.0971443720337   0.0972866169889   0.0974130639943   
      0.0975224188378   0.0976135387462   0.097685454847   0.0977373917678   0.097768783677   
      0.0977792861867   0.097768783677   0.0977373917678   0.097685454847   0.0976135387462   
      0.0975224188378   0.0974130639943   0.0972866169889   0.0971443720337   0.0969877502247   
      0.0968182737004   0.096637539325   0.0964471926653   0.096248902967   0.0960443397391   
      0.0958351514454   0.0956229466745   0.0954092780375   0.0951956289148   0.0949834030612   
      0.0947739169802   0.0945683948924   0.0943679660631   0.0941736642075   0.0939864286692   
      0.093807107054   0.093636459012   0.0934751608697   0.0933238108452   0.0931829346018   
      0.0930529909344   0.0929343774087   0.0928274358114   0.0927324572937   0.0926496871192   
      0.0925793289496   0.0925215486182   0.0924764773585   0.0924442144651   0.0924248293727   
      0.107224582613   0.107235132659   0.107266761471   0.107319404549   0.107392952686   
      0.107487249404   0.107602087382   0.107737203886   0.10789227523   0.108066910307   
      0.108260643255   0.108472925344   0.1087031162   0.108950474529   0.109214148541   
      0.109493166327   0.109786426487   0.110092689376   0.11041056937   0.110738528616   
      0.111074872745   0.111417749081   0.111765147847   0.112114906877   0.112464720257   
      0.112812151301   0.113154650068   0.113489575582   0.113814222671   0.114125853203   
      0.114421731272   0.114699161699   0.114955531013   0.115188349905   0.115395296016   
      0.115574255808   0.11572336424   0.115841040968   0.115926021862   0.115977384749   
      0.115994568499   0.115977384749   0.115926021862   0.115841040968   0.11572336424   
      0.115574255808   0.115395296016   0.115188349905   0.114955531013   0.114699161699   
      0.114421731272   0.114125853203   0.113814222671   0.113489575582   0.113154650068   
      0.112812151301   0.112464720257   0.112114906877   0.111765147847   0.111417749081   
      0.111074872745   0.110738528616   0.11041056937   0.110092689376   0.109786426487   
      0.109493166327   0.109214148541   0.108950474529   0.1087031162   0.108472925344   
      0.108260643255   0.108066910307   0.10789227523   0.107737203886   0.107602087382   
      0.107487249404   0.107392952686   0.107319404549   0.107266761471   0.107235132659   
      0.119556991952   0.119571953253   0.119616807005   0.119691462006   0.119795763733   
      0.119929490576   0.120092348587   0.120283964772   0.120503878982   0.120751534458   
      0.121026267148   0.12132729392   0.121653699879   0.12200442502   0.122378250533   
      0.12277378514   0.123189451927   0.123623476194   0.124073874923   0.124538448521   
      0.125014775552   0.125500211147   0.125991889835   0.126486733423   0.126981464519   
      0.127472626132   0.127956607639   0.128429677166   0.128888020244   0.129327784288   
      0.129745128227   0.13013627632   0.130497574976   0.130825551168   0.131116970897   
      0.131368896048   0.131578737956   0.131744306035   0.131863849936   0.131936093868   
      0.131960261969   0.131936093868   0.131863849936   0.131744306035   0.131578737956   
      0.131368896048   0.131116970897   0.130825551168   0.130497574976   0.13013627632   
      0.129745128227   0.129327784288   0.128888020244   0.128429677166   0.127956607639   
      0.127472626132   0.126981464519   0.126486733423   0.125991889835   0.125500211147   
      0.125014775552   0.124538448521   0.124073874923   0.123623476194   0.123189451927   
      0.12277378514   0.122378250533   0.12200442502   0.121653699879   0.12132729392   
      0.121026267148   0.120751534458   0.120503878982   0.120283964772   0.120092348587   
      0.119929490576   0.119795763733   0.119691462006   0.119616807005   0.119571953253   
      0.131137453374   0.131156832951   0.131214931779   0.131311629142   0.131446720491   
      0.131619912435   0.131830815761   0.132078936546   0.132363665429   0.13268426515   
      0.133039856526   0.133429403055   0.13385169444   0.134305329382   0.134788698077   
      0.135299964953   0.13583705227   0.136397625291   0.136979079833   0.13757853303   
      0.13819281822   0.138818484837   0.139451804166   0.14008878172   0.140725176877   
      0.141356530206   0.141978198694   0.142585398807   0.143173257011   0.143736867076   
      0.14427135317   0.14477193746   0.145234010683   0.145653203971   0.146025460036   
      0.146347101814   0.146614896614   0.146826113975   0.14697857551   0.147070695306   
      0.147101509663   0.147070695306   0.14697857551   0.146826113975   0.146614896614   
      0.146347101814   0.146025460036   0.145653203971   0.145234010683   0.14477193746   
      0.14427135317   0.143736867076   0.143173257011   0.142585398807   0.141978198694   
      0.141356530206   0.140725176877   0.14008878172   0.139451804166   0.138818484837   
      0.13819281822   0.13757853303   0.136979079833   0.136397625291   0.13583705227   
      0.135299964953   0.134788698077   0.134305329382   0.13385169444   0.133429403055   
      0.133039856526   0.13268426515   0.132363665429   0.132078936546   0.131830815761   
      0.131619912435   0.131446720491   0.131311629142   0.131214931779   0.131156832951   
      0.141155139206   0.14117835621   0.141247957607   0.141363793318   0.141525609115   
      0.141733040503   0.141985604217   0.142282687424   0.142623534718   0.143007233086   
      0.143432695061   0.143898640339   0.144403576241   0.144945777496   0.14552326589   
      0.146133790492   0.14677480921   0.147443472576   0.148136610725   0.148850724557   
      0.149581982148   0.150326221378   0.151078959729   0.151835412011   0.152590516621   
      0.153338970674   0.154075274034   0.154793781995   0.155488765943   0.15615448107   
      0.156785239824   0.157375489531   0.157919892416   0.158413406051   0.158851362225   
      0.15922954221   0.159544246464   0.159792356956   0.15997139051   0.160079541767   
      0.160115714686   0.160079541767   0.15997139051   0.159792356956   0.159544246464   
      0.15922954221   0.158851362225   0.158413406051   0.157919892416   0.157375489531   
      0.156785239824   0.15615448107   0.155488765943   0.154793781995   0.154075274034   
      0.153338970674   0.152590516621   0.151835412011   0.151078959729   0.150326221378   
      0.149581982148   0.148850724557   0.148136610725   0.147443472576   0.14677480921   
      0.146133790492   0.14552326589   0.144945777496   0.144403576241   0.143898640339   
      0.143432695061   0.143007233086   0.142623534718   0.142282687424   0.141985604217   
      0.141733040503   0.141525609115   0.141363793318   0.141247957607   0.14117835621   
      0.149031022185   0.149057193853   0.149135650646   0.149266216525   0.149448593409   
      0.149682354196   0.149966933081   0.150301613276   0.150685512288   0.151117564948   
      0.151596504491   0.152120842032   0.152688844913   0.153298514496   0.153947564069   
      0.154633397695   0.155353090903   0.156103374238   0.156880620757   0.157680838593   
      0.158499669693   0.159332395787   0.160173952502   0.161018952363   0.161861717163   
      0.162696319894   0.163516636074   0.164316403956   0.165089292734   0.165828977508   
      0.166529219489   0.167183949645   0.167787353866   0.168333957583   0.168818707817   
      0.169237050675   0.169585002439   0.16985921261   0.170057017452   0.170176482883   
      0.170216435753   0.170176482883   0.170057017452   0.16985921261   0.169585002439   
      0.169237050675   0.168818707817   0.168333957583   0.167787353866   0.167183949645   
      0.166529219489   0.165828977508   0.165089292734   0.164316403956   0.163516636074   
      0.162696319894   0.161861717163   0.161018952363   0.160173952502   0.159332395787   
      0.158499669693   0.157680838593   0.156880620757   0.156103374238   0.155353090903   
      0.154633397695   0.153947564069   0.153298514496   0.152688844913   0.152120842032   
      0.151596504491   0.151117564948   0.150685512288   0.150301613276   0.149966933081   
      0.149682354196   0.149448593409   0.149266216525   0.149135650646   0.149057193853   
      0.154391469046   0.15441959958   0.154503926552   0.154644254536   0.154840252753   
      0.155091447511   0.155397211743   0.155756751757   0.156169091393   0.156633053818   
      0.157147241305   0.157710013412   0.158319464096   0.15897339841   0.159669309557   
      0.160404357205   0.161175348055   0.161978719777   0.162810529462   0.16366644779   
      0.164541760037   0.165431374991   0.166329842657   0.167231381425   0.16812991506   
      0.169019119567   0.169892479589   0.170743353624   0.17156504697   0.172350890988   
      0.173094326973   0.173788992731   0.174428809844   0.175008069572   0.175521515381   
      0.175964420236   0.176332656948   0.17662276011   0.176831978388   0.176958316176   
      0.177000563857   0.176958316176   0.176831978388   0.17662276011   0.176332656948   
      0.175964420236   0.175521515381   0.175008069572   0.174428809844   0.173788992731   
      0.173094326973   0.172350890988   0.17156504697   0.170743353624   0.169892479589   
      0.169019119567   0.16812991506   0.167231381425   0.166329842657   0.165431374991   
      0.164541760037   0.16366644779   0.162810529462   0.161978719777   0.161175348055   
      0.160404357205   0.159669309557   0.15897339841   0.158319464096   0.157710013412   
      0.157147241305   0.156633053818   0.156169091393   0.155756751757   0.155397211743   
      0.155091447511   0.154840252753   0.154644254536   0.154503926552   0.15441959958   
      0.157089680507   0.157118777486   0.15720600036   0.157351143346   0.157553858212   
      0.157813646429   0.158129848329   0.158501629377   0.158927963789   0.159407615738   
      0.159939118523   0.160520752152   0.161150519914   0.161826124624   0.162544945368   
      0.163304015694   0.164100004284   0.164929199279   0.165787497425   0.166670399263   
      0.167573011519   0.168490057728   0.169415897957   0.170344558254   0.171269770102   
      0.172185019858   0.173083607706   0.173958715337   0.174803481126   0.175611081311   
      0.176374815382   0.177088193719   0.177745025448   0.178339504446   0.178866291563   
      0.179320591239   0.179698220928   0.17999567197   0.180210160787   0.180339669548   
      0.180382975645   0.180339669548   0.180210160787   0.17999567197   0.179698220928   
      0.179320591239   0.178866291563   0.178339504446   0.177745025448   0.177088193719   
      0.176374815382   0.175611081311   0.174803481126   0.173958715337   0.173083607706   
      0.172185019858   0.171269770102   0.170344558254   0.169415897957   0.168490057728   
      0.167573011519   0.166670399263   0.165787497425   0.164929199279   0.164100004284   
      0.163304015694   0.162544945368   0.161826124624   0.161150519914   0.160520752152   
      0.159939118523   0.159407615738   0.158927963789   0.158501629377   0.158129848329   
      0.157813646429   0.157553858212   0.157351143346   0.15720600036   0.157118777486   
      0.157089680507   0.157118777486   0.15720600036   0.157351143346   0.157553858212   
      0.157813646429   0.158129848329   0.158501629377   0.158927963789   0.159407615738   
      0.159939118523   0.160520752152   0.161150519914   0.161826124624   0.162544945368   
      0.163304015694   0.164100004284   0.164929199279   0.165787497425   0.166670399263   
      0.167573011519   0.168490057728   0.169415897957   0.170344558254   0.171269770102   
      0.172185019858   0.173083607706   0.173958715337   0.174803481126   0.175611081311   
      0.176374815382   0.177088193719   0.177745025448   0.178339504446   0.178866291563   
      0.179320591239   0.179698220928   0.17999567197   0.180210160787   0.180339669548   
      0.180382975645   0.180339669548   0.180210160787   0.17999567197   0.179698220928   
      0.179320591239   0.178866291563   0.178339504446   0.177745025448   0.177088193719   
      0.176374815382   0.175611081311   0.174803481126   0.173958715337   0.173083607706   
      0.172185019858   0.171269770102   0.170344558254   0.169415897957   0.168490057728   
      0.167573011519   0.166670399263   0.165787497425   0.164929199279   0.164100004284   
      0.163304015694   0.162544945368   0.161826124624   0.161150519914   0.160520752152   
      0.159939118523   0.159407615738   0.158927963789   0.158501629377   0.158129848329   
      0.157813646429   0.157553858212   0.157351143346   0.15720600036   0.157118777486   
      0.154391469046   0.15441959958   0.154503926552   0.154644254536   0.154840252753   
      0.155091447511   0.155397211743   0.155756751757   0.156169091393   0.156633053818   
      0.157147241305   0.157710013412   0.158319464096   0.15897339841   0.159669309557   
      0.160404357205   0.161175348055   0.161978719777   0.162810529462   0.16366644779   
      0.164541760037   0.165431374991   0.166329842657   0.167231381425   0.16812991506   
      0.169019119567   0.169892479589   0.170743353624   0.17156504697   0.172350890988   
      0.173094326973   0.173788992731   0.174428809844   0.175008069572   0.175521515381   
      0.175964420236   0.176332656948   0.17662276011   0.176831978388   0.176958316176   
      0.177000563857   0.176958316176   0.176831978388   0.17662276011   0.176332656948   
      0.175964420236   0.175521515381   0.175008069572   0.174428809844   0.173788992731   
      0.173094326973   0.172350890988   0.17156504697   0.170743353624   0.169892479589   
      0.169019119567   0.16812991506   0.167231381425   0.166329842657   0.165431374991   
      0.164541760037   0.16366644779   0.162810529462   0.161978719777   0.161175348055   
      0.160404357205   0.159669309557   0.15897339841   0.158319464096   0.157710013412   
      0.157147241305   0.156633053818   0.156169091393   0.155756751757   0.155397211743   
      0.155091447511   0.154840252753   0.154644254536   0.154503926552   0.15441959958   
      0.149031022185   0.149057193853   0.149135650646   0.149266216525   0.149448593409   
      0.149682354196   0.149966933081   0.150301613276   0.150685512288   0.151117564948   
      0.151596504491   0.152120842032   0.152688844913   0.153298514496   0.153947564069   
      0.154633397695   0.155353090903   0.156103374238   0.156880620757   0.157680838593   
      0.158499669693   0.159332395787   0.160173952502   0.161018952363   0.161861717163   
      0.162696319894   0.163516636074   0.164316403956   0.165089292734   0.165828977508   
      0.166529219489   0.167183949645   0.167787353866   0.168333957583   0.168818707817   
      0.169237050675   0.169585002439   0.16985921261   0.170057017452   0.170176482883   
      0.170216435753   0.170176482883   0.170057017452   0.16985921261   0.169585002439   
      0.169237050675   0.168818707817   0.168333957583   0.167787353866   0.167183949645   
      0.166529219489   0.165828977508   0.165089292734   0.164316403956   0.163516636074   
      0.162696319894   0.161861717163   0.161018952363   0.160173952502   0.159332395787   
      0.158499669693   0.157680838593   0.156880620757   0.156103374238   0.155353090903   
      0.154633397695   0.153947564069   0.153298514496   0.152688844913   0.152120842032   
      0.151596504491   0.151117564948   0.150685512288   0.150301613276   0.149966933081   
      0.149682354196   0.149448593409   0.149266216525   0.149135650646   0.149057193853   
      0.141155139206   0.14117835621   0.141247957607   0.141363793318   0.141525609115   
      0.141733040503   0.141985604217   0.142282687424   0.142623534718   0.143007233086   
      0.143432695061   0.143898640339   0.144403576241   0.144945777496   0.14552326589   
      0.146133790492   0.14677480921   0.147443472576   0.148136610725   0.148850724557   
      0.149581982148   0.150326221378   0.151078959729   0.151835412011   0.152590516621   
      0.153338970674   0.154075274034   0.154793781995   0.155488765943   0.15615448107   
      0.156785239824   0.157375489531   0.157919892416   0.158413406051   0.158851362225   
      0.15922954221   0.159544246464   0.159792356956   0.15997139051   0.160079541767   
      0.160115714686   0.160079541767   0.15997139051   0.159792356956   0.159544246464   
      0.15922954221   0.158851362225   0.158413406051   0.157919892416   0.157375489531   
      0.156785239824   0.15615448107   0.155488765943   0.154793781995   0.154075274034   
      0.153338970674   0.152590516621   0.151835412011   0.151078959729   0.150326221378   
      0.149581982148   0.148850724557   0.148136610725   0.147443472576   0.14677480921   
      0.146133790492   0.14552326589   0.144945777496   0.144403576241   0.143898640339   
      0.143432695061   0.143007233086   0.142623534718   0.142282687424   0.141985604217   
      0.141733040503   0.141525609115   0.141363793318   0.141247957607   0.14117835621   
      0.131137453374   0.131156832951   0.131214931779   0.131311629142   0.131446720491   
      0.131619912435   0.131830815761   0.132078936546   0.132363665429   0.13268426515   
      0.133039856526   0.133429403055   0.13385169444   0.134305329382   0.134788698077   
      0.135299964953   0.13583705227   0.136397625291   0.136979079833   0.13757853303   
      0.13819281822   0.138818484837   0.139451804166   0.14008878172   0.140725176877   
      0.141356530206   0.141978198694   0.142585398807   0.143173257011   0.143736867076   
      0.14427135317   0.14477193746   0.145234010683   0.145653203971   0.146025460036   
      0.146347101814   0.146614896614   0.146826113975   0.14697857551   0.147070695306   
      0.147101509663   0.147070695306   0.14697857551   0.146826113975   0.146614896614   
      0.146347101814   0.146025460036   0.145653203971   0.145234010683   0.14477193746   
      0.14427135317   0.143736867076   0.143173257011   0.142585398807   0.141978198694   
      0.141356530206   0.140725176877   0.14008878172   0.139451804166   0.138818484837   
      0.13819281822   0.13757853303   0.136979079833   0.136397625291   0.13583705227   
      0.135299964953   0.134788698077   0.134305329382   0.13385169444   0.133429403055   
      0.133039856526   0.13268426515   0.132363665429   0.132078936546   0.131830815761   