<?xml version="1.0"?>
<VTKFile type="ImageData" version="0.1" byte_order="LittleEndian">
  <ImageData WholeExtent="0 79 0 19 0 19" Origin="0 0 0" Spacing="1 1 1">
  <Piece Extent="0 79 0 19 0 19">
    <PointData Scalars="density">
       <DataArray type="Float32" Name="reddensity" NumberOfComponents="1" format="ascii">
      0   0   0   0   0   
      0   0   0   0   0   
      0   0   0   0   0   
      0   0   0   0   0   
      0   0   0   0   0   
      0   0   0   0   0   
      0   0   0   0   0   
      0   0   0   0   0   
      0   0   0   0   0   
      0   0   0   0   0   
      0   0   0   0   0   
      0   0   0   0   0   
      0   0   0   0   0   
      0   0   0   0   0   
      0   0   0   0   0   
      0   0   0   0   0   
      0   0   0   0   0   
      0   0   0   0   0   
      0   0   0   0   0   
      0   0   0   0   0   
      0   0   0   0   0   
      0   0   0   0   0   
      0   0   0   0   0   
      0   0   0   0   0   
      0   0   0   0   0   
      0   0   0   0   0   
      0   0   0   0   0   
      0   0   0   0   0   
      0   0   0   0   0   
      0   0   0   0   0   
      0   0   0   0   0   
      0   0   0   0   0   
      0   0   0   0   0   
      0   0   0   0   0   
      0   0   0   0   0   
      0   0   0   0   0   
      0   0   0   0   0   
      0   0   0   0   0   
      0   0   0   0   0   
      0   0   0   0   0   
      0   0   0   0   0   
      0   0   0   0   0   
      0   0   0   0   0   
      0   0   0   0   0   
      0   0   0   0   0   
      0   0   0   0   0   
      0   0   0   0   0   
      0   0   0   0   0   
      0   0   0   0   0   
      0   0   0   0   0   
      0   0   0   0   0   
      0   0   0   0   0   
      0   0   0   0   0   
      0   0   0   0   0   
      0   0   0   0   0   
      0   0   0   0   0   
      0   0   0   0   0   
      0   0   0   0   0   
      0   0   0   0   0   
      0   0   0   0   0   
      0   0   0   0   0   
      0   0   0   0   0   
      0   0   0   0   0   
      0   0   0   0   0   
      0   0   0   0   0   
      0   0   0   0   0   
      0   0   0   0   0   
      0   0   0   0   0   
      0   0   0   0   0   
      0   0   0   0   0   
      0   0   0   0   0   
      0   0   0   0   0   
      0   0   0   0   0   
      0   0   0   0   0   
      0   0   0   0   0   
      0   0   0   0   0   
      0   0   0   0   0   
      0   0   0   0   0   
      0   0   0   0   0   
      0   0   0   0   0   
      0   0   0   0   0   
      0   0   0   0   0   
      0   0   0   0   0   
      0   0   0   0   0   
      0   0   0   0   0   
      0   0   0   0   0   
      0   0   0   0   0   
      0   0   0   0   0   
      0   0   0   0   0   
      0   0   0   0   0   
      0   0   0   0   0   
      0   0   0   0   0   
      0   0   0   0   0   
      0   0   0   0   0   
      0   0   0   0   0   
      0   0   0   0   0   
      0   0   0   0   0   
      0   0   0   0   0   
      0   0   0   0   0   
      0   0   0   0   0   
      0   0   0   0   0   
      0   0   0   0   0   
      0   0   0   0   0   
      0   0   0   0   0   
      0   0   0   0   0   
      0   0   0   0   0   
      0   0   0   0   0   
      0   0   0   0   0   
      0   0   0   0   0   
      0   0   0   0   0   
      0   0   0   0   0   
      0   0   0   0   0   
      0   0   0   0   0   
      0   0   0   0   0   
      0   0   0   0   0   
      0   0   0   0   0   
      0   0   0   0   0   
      0   0   0   0   0   
      0   0   0   0   0   
      0   0   0   0   0   
      0   0   0   0   0   
      0   0   0   0   0   
      0   0   0   0   0   
      0   0   0   0   0   
      0   0   0   0   0   
      0   0   0   0   0   
      0   0   0   0   0   
      0   0   0   0   0   
      0   0   0   0   0   
      0   0   0   0   0   
      0   0   0   0   0   
      0   0   0   0   0   
      0   0   0   0   0   
      0   0   0   0   0   
      0   0   0   0   0   
      0   0   0   0   0   
      0   0   0   0   0   
      0   0   0   0   0   
      0   0   0   0   0   
      0   0   0   0   0   
      0   0   0   0   0   
      0   0   0   0   0   
      0   0   0   0   0   
      0   0   0   0   0   
      0   0   0   0   0   
      0   0   0   0   0   
      0   0   0   0   0   
      0   0   0   0   0   
      0   0   0   0   0   
      0   0   0   0   0   
      0   0   0   0   0   
      0   0   0   0   0   
      0   0   0   0   0   
      0   0   0   0   0   
      0   0   0   0   0   
      0   0   0   0   0   
      0   0   0   0   0   
      0   0   0   0   0   
      0   0   0   0   0   
      0   0   0   0   0   
      0   0   0   0   0   
      0   0   0   0   0   
      0   0   0   0   0   
      0   0   0   0   0   
      0   0   0   0   0   
      0   0   0   0   0   
      0   0   0   0   0   
      0   0   0   0   0   
      0   0   0   0   0   
      0   0   0   0   0   
      0   0   0   0   0   
      0   0   0   0   0   
      0   0   0   0   0   
      0   0   0   0   0   
      0   0   0   0   0   
      0   0   0   0   0   
      0   0   0   0   0   
      0   0   0   0   0   
      0   0   0   0   0   
      0   0   0   0   0   
      0   0   0   0   0   
      0   0   0   0   0   
      0   0   0   0   0   
      0   0   0   0   0   
      0   0   0   0   0   
      0   0   0   0   0   
      0   0   0   0   0   
      0   0   0   0   0   
      0   0   0   0   0   
      0   0   0   0   0   
      0   0   0   0   0   
      0   0   0   0   0   
      0   0   0   0   0   
      0   0   0   0   0   
      0   0   0   0   0   
      0   0   0   0   0   
      0   0   0   0   0   
      0   0   0   0   0   
      0   0   0   0   0   
      0   0   0   0   0   
      0   0   0   0   0   
      0   0   0   0   0   
      0   0   0   0   0   
      0   0   0   0   0   
      0   0   0   0   0   
      0   0   0   0   0   
      0   0   0   0   0   
      0   0   0   0   0   
      0   0   0   0   0   
      0   0   0   0   0   
      0   0   0   0   0   
      0   0   0   0   0   
      0   0   0   0   0   
      0   0   0   0   0   
      0   0   0   0   0   
      0   0   0   0   0   
      0   0   0   0   0   
      0   0   0   0   0   
      0   0   0   0   0   
      0   0   0   0   0   
      0   0   0   0   0   
      0   0   0   0   0   
      0   0   0   0   0   
      0   0   0   0   0   
      0   0   0   0   0   
      0   0   0   0   0   
      0   0   0   0   0   
      0   0   0   0   0   
      0   0   0   0   0   
      0   0   0   0   0   
      0   0   0   0   0   
      0   0   0   0   0   
      0   0   0   0   0   
      0   0   0   0   0   
      0   0   0   0   0   
      0   0   0   0   0   
      0   0   0   0   0   
      0   0   0   0   0   
      0   0   0   0   0   
      0   0   0   0   0   
      0   0   0   0   0   
      0   0   0   0   0   
      0   0   0   0   0   
      0   0   0   0   0   
      0   0   0   0   0   
      0   0   0   0   0   
      0   0   0   0   0   
      0   0   0   0   0   
      0   0   0   0   0   
      0   0   0   0   0   
      0   0   0   0   0   
      0   0   0   0   0   
      0   0   0   0   0   
      0   0   0   0   0   
      0   0   0   0   0   
      0   0   0   0   0   
      0   0   0   0   0   
      0   0   0   0   0   
      0   0   0   0   0   
      0   0   0   0   0   
      0   0   0   0   0   
      0   0   0   0   0   
      0   0   0   0   0   
      0   0   0   0   0   
      0   0   0   0   0   
      0   0   0   0   0   
      0   0   0   0   0   
      0   0   0   0   0   
      0   0   0   0   0   
      0   0   0   0   0   
      0   0   0   0   0   
      0   0   0   0   0   
      0   0   0   0   0   
      0   0   0   0   0   
      0   0   0   0   0   
      0   0   0   0   0   
      0   0   0   0   0   
      0   0   0   0   0   
      0   0   0   0   0   
      0   0   0   0   0   
      0   0   0   0   0   
      0   0   0   0   0   
      0   0   0   0   0   
      0   0   0   0   0   
      0   0   0   0   0   
      0   0   0   0   0   
      0   0   0   0   0   
      0   0   0   0   0   
      0   0   0   0   0   
      0   0   0   0   0   
      0   0   0   0   0   
      0   0   0   0   0   
      0   0   0   0   0   
      0   0   0   0   0   
      0   0   0   0   0   
      0   0   0   0   0   
      0   0   0   0   0   
      0   0   0   0   0   
      0   0   0   0   0   
      0   0   0   0   0   
      0   0   0   0   0   
      0   0   0   0   0   
      0   0   0   0   0   
      0   0   0   0   0   
      0   0   0   0   0   
      0   0   0   0   0   
      0   0   0   0   0   
      0   0   0   0   0   
      0   0   0   0   0   
      0   0   0   0   0   
      0   0   0   0   0   
      0   0   0   0   0   
      0   0   0   0   0   
      0   0   0   0   0   
      0   0   0   0   0   
      0   0   0   0   0   
      0   0   0   0   0   
      0   0   0   0   0   
      0   0   0   0   0   
      0   0   0   0   0   
      0   0   0   0   0   
      0   0   0   0   0   
      0   0   0   0   0   
      0   0   0   0   0   
      0   0   0   0   0   
      0   0   0   0   0   
      0   0   0   0   0   
      0   0   0   0   0   
      0   0   0   0   0   
      0   0   0   0   0   
      0   0   0   0   0   
      0   0   0   0   0   
      0   0   0   0   0   
      0   0   0   0   0   
      0   0   0   0   0   
      0   0   0   0   0   
      0.0844094099771   0.0844124095747   0.0844213975912   0.0844363416226   0.084457187416   
      0.0844838585046   0.0845162557103   0.0845542565245   0.0845977143837   0.0846464578613   
      0.0847002897999   0.0847589864154   0.084822296407   0.0848899401141   0.0849616087662   
      0.0850369638758   0.0851156368293   0.0851972287348   0.085281310587   0.0853674238119   
      0.0854550812499   0.0855437686368   0.0856329466316   0.0857220534341   0.0858105080225   
      0.0858977140271   0.0859830642369   0.0860659457191   0.0861457455072   0.086221856792   
      0.0862936855278   0.0863606573421   0.08642222462   0.0864778736159   0.0865271314329   
      0.0865695727046   0.0866048258101   0.086632578459   0.0866525824963   0.0866646577899   
      0.0866686950919   0.0866646577899   0.0866525824963   0.086632578459   0.0866048258101   
      0.0865695727046   0.0865271314329   0.0864778736159   0.08642222462   0.0863606573421   
      0.0862936855278   0.086221856792   0.0861457455072   0.0860659457191   0.0859830642369   
      0.0858977140271   0.0858105080225   0.0857220534341   0.0856329466316   0.0855437686368   
      0.0854550812499   0.0853674238119   0.085281310587   0.0851972287348   0.0851156368293   
      0.0850369638758   0.0849616087662   0.0848899401141   0.084822296407   0.0847589864154   
      0.0847002897999   0.0846464578613   0.0845977143837   0.0845542565245   0.0845162557103   
      0.0844838585046   0.084457187416   0.0844363416226   0.0844213975912   0.0844124095747   
      0.0933018624499   0.0933061676349   0.0933190679403   0.0933405175045   0.0933704395176   
      0.0934087256695   0.0934552353947   0.0935097949333   0.0935721962317   0.0936421957143   
      0.0937195129629   0.0938038293504   0.0938947866794   0.0939919858869   0.0940949858823   
      0.0942033025937   0.0943164083036   0.0944337313605   0.0945546563556   0.0946785248556   
      0.0948046367799   0.0949322525058   0.0950605957761   0.0951888574705   0.0953162002833   
      0.0954417643308   0.0955646736843   0.0956840437952   0.0957989897497   0.0959086352545   
      0.096012122225   0.0961086208144   0.0961973396927   0.0962775363645   0.0963485272914   
      0.0964096975801   0.0964605099908   0.0965005130326   0.0965293479223   0.0965467542181   
      0.0965525739624   0.0965467542181   0.0965293479223   0.0965005130326   0.0964605099908   
      0.0964096975801   0.0963485272914   0.0962775363645   0.0961973396927   0.0961086208144   
      0.096012122225   0.0959086352545   0.0957989897497   0.0956840437952   0.0955646736843   
      0.0954417643308   0.0953162002833   0.0951888574705   0.0950605957761   0.0949322525058   
      0.0948046367799   0.0946785248556   0.0945546563556   0.0944337313605   0.0943164083036   
      0.0942033025937   0.0940949858823   0.0939919858869   0.0938947866794   0.0938038293504   
      0.0937195129629   0.0936421957143   0.0935721962317   0.0935097949333   0.0934552353947   
      0.0934087256695   0.0933704395176   0.0933405175045   0.0933190679403   0.0933061676349   
      0.108674700598   0.10868173725   0.108702822551   0.108737882345   0.108786792392   
      0.108849377423   0.108925409839   0.109014608098   0.109116634825   0.109231094701   
      0.10935753219   0.109495429198   0.109644202724   0.109803202638   0.109971709672   
      0.110148933775   0.110334012947   0.110526012715   0.110723926387   0.110926676241   
      0.111133115796   0.111342033293   0.111552156521   0.111762159067   0.111970668074   
      0.112176273531   0.112377539075   0.11257301426   0.112761248175   0.112940804242   
      0.11311027598   0.113268303468   0.113413590195   0.113544919941   0.113661173317   
      0.113761343576   0.113844551294   0.113910057547   0.113957275231   0.113985778217   
      0.113995308081   0.113985778217   0.113957275231   0.113910057547   0.113844551294   
      0.113761343576   0.113661173317   0.113544919941   0.113413590195   0.113268303468   
      0.11311027598   0.112940804242   0.112761248175   0.11257301426   0.112377539075   
      0.112176273531   0.111970668074   0.111762159067   0.111552156521   0.111342033293   
      0.111133115796   0.110926676241   0.110723926387   0.110526012715   0.110334012947   
      0.110148933775   0.109971709672   0.109803202638   0.109644202724   0.109495429198   
      0.10935753219   0.109231094701   0.109116634825   0.109014608098   0.108925409839   
      0.108849377423   0.108786792392   0.108737882345   0.108702822551   0.10868173725   
      0.121621483547   0.12163146308   0.121661366601   0.121711088587   0.121780452241   
      0.121869208112   0.121977032227   0.122103523762   0.122248202321   0.122410504905   
      0.122589782672   0.122785297585   0.122996219098   0.123221621024   0.123460478746   
      0.123711666966   0.123973958178   0.124246022076   0.124526426114   0.124813637411   
      0.125106026225   0.125401871162   0.125699366288   0.125996630268   0.126291717612   
      0.126582632052   0.12686734202   0.127143798123   0.127409952441   0.127663779414   
      0.127903297983   0.128126594627   0.128331846844   0.128517346595   0.128681523203   
      0.128822965165   0.128940440364   0.129032914155   0.129099564883   0.129139796405   
      0.129153247281   0.129139796405   0.129099564883   0.129032914155   0.128940440364   
      0.128822965165   0.128681523203   0.128517346595   0.128331846844   0.128126594627   
      0.127903297983   0.127663779414   0.127409952441   0.127143798123   0.12686734202   
      0.126582632052   0.126291717612   0.125996630268   0.125699366288   0.125401871162   
      0.125106026225   0.124813637411   0.124526426114   0.124246022076   0.123973958178   
      0.123711666966   0.123460478746   0.123221621024   0.122996219098   0.122785297585   
      0.122589782672   0.122410504905   0.122248202321   0.122103523762   0.121977032227   
      0.121869208112   0.121780452241   0.121711088587   0.121661366601   0.12163146308   
      0.133817989313   0.133830901394   0.133869591655   0.133933921791   0.134023660091   
      0.134138479665   0.134277956028   0.134441564108   0.134628674761   0.134838550904   
      0.135070343399   0.135323086837   0.135595695407   0.135886959038   0.136195540054   
      0.13651997056   0.136858650835   0.137209848984   0.137571702114   0.137942219311   
      0.138319286646   0.138700674443   0.139084046987   0.139466974811   0.13984694963   
      0.140221401934   0.140587721163   0.14094327831   0.141285450699   0.141611648625   
      0.141919343426   0.14220609651   0.142469588786   0.142707649901   0.142918286663   
      0.143099710003   0.143250359859   0.143368927381   0.143454373916   0.143505946301   
      0.143523188069   0.143505946301   0.143454373916   0.143368927381   0.143250359859   
      0.143099710003   0.142918286663   0.142707649901   0.142469588786   0.14220609651   
      0.141919343426   0.141611648625   0.141285450699   0.14094327831   0.140587721163   
      0.140221401934   0.13984694963   0.139466974811   0.139084046987   0.138700674443   
      0.138319286646   0.137942219311   0.137571702114   0.137209848984   0.136858650835   
      0.13651997056   0.136195540054   0.135886959038   0.135595695407   0.135323086837   
      0.135070343399   0.134838550904   0.134628674761   0.134441564108   0.134277956028   
      0.134138479665   0.134023660091   0.133933921791   0.133869591655   0.133830901394   
      0.144370501053   0.14438593999   0.144432200767   0.144509114853   0.144616399948   
      0.144753657901   0.144920371876   0.145115902858   0.145339485596   0.145590224134   
      0.145867087086   0.146168902845   0.146494354952   0.146841977869   0.147210153419   
      0.147597108186   0.148000912183   0.148419479083   0.148850568337   0.149291789467   
      0.149740608808   0.150194358931   0.15065025094   0.151105389764   0.151556792495   
      0.152001409729   0.152436149813   0.152857905735   0.153263584387   0.153650137754   
      0.154014595558   0.154354098774   0.154665933406   0.154947563832   0.155196665047   
      0.155411153098   0.15558921305   0.155729323837   0.155830279448   0.155891205938   
      0.155911573877   0.155891205938   0.155830279448   0.155729323837   0.15558921305   
      0.155411153098   0.155196665047   0.154947563832   0.154665933406   0.154354098774   
      0.154014595558   0.153650137754   0.153263584387   0.152857905735   0.152436149813   
      0.152001409729   0.151556792495   0.151105389764   0.15065025094   0.150194358931   
      0.149740608808   0.149291789467   0.148850568337   0.148419479083   0.148000912183   
      0.147597108186   0.147210153419   0.146841977869   0.146494354952   0.146168902845   
      0.145867087086   0.145590224134   0.145339485596   0.145115902858   0.144920371876   
      0.144753657901   0.144616399948   0.144509114853   0.144432200767   0.14438593999   
      0.152657546861   0.152674913253   0.152726948139   0.152813458177   0.152934119572   
      0.153088475796   0.153275934482   0.153495763611   0.153747087114   0.154028880042   
      0.154339963514   0.15467899965   0.155044486747   0.155434754989   0.155847962974   
      0.156282095408   0.156734962278   0.157204199867   0.15768727392   0.15818148529   
      0.158683978344   0.15919175235   0.159701676032   0.160210505383   0.160714904768   
      0.161211471208   0.161696761705   0.162167323299   0.16261972549   0.163050594553   
      0.163456649198   0.163834736933   0.164181870483   0.164495263539   0.164772365136   
      0.16501089194   0.165208857789   0.165364599841   0.165476800785   0.16554450664   
      0.165567139739   0.16554450664   0.165476800785   0.165364599841   0.165208857789   
      0.16501089194   0.164772365136   0.164495263539   0.164181870483   0.163834736933   
      0.163456649198   0.163050594553   0.16261972549   0.162167323299   0.161696761705   
      0.161211471208   0.160714904768   0.160210505383   0.159701676032   0.15919175235   
      0.158683978344   0.15818148529   0.15768727392   0.157204199867   0.156734962278   
      0.156282095408   0.155847962974   0.155434754989   0.155044486747   0.15467899965   
      0.154339963514   0.154028880042   0.153747087114   0.153495763611   0.153275934482   
      0.153088475796   0.152934119572   0.152813458177   0.152726948139   0.152674913253   
      0.15829003785   0.158308670387   0.158364497905   0.158457309633   0.158586752651   
      0.158752329494   0.158953394915   0.159189151897   0.159458647093   0.159760765831   
      0.16009422694   0.160457577602   0.160849188533   0.161267249788   0.161709767513   
      0.162174562009   0.162659267435   0.163161333539   0.16367802973   0.164206451833   
      0.164743531783   0.165286050506   0.165830654119   0.166373873543   0.1669121475   
      0.167441848779   0.167959313553   0.168460873423   0.168942889766   0.169401789865   
      0.169834104249   0.170236504572   0.170605841354   0.170939180859   0.1712338404   
      0.171487421365   0.171697839329   0.171863350615   0.171982574801   0.172054512708   
      0.172078559511   0.172054512708   0.171982574801   0.171863350615   0.171697839329   
      0.171487421365   0.1712338404   0.170939180859   0.170605841354   0.170236504572   
      0.169834104249   0.169401789865   0.168942889766   0.168460873423   0.167959313553   
      0.167441848779   0.1669121475   0.166373873543   0.165830654119   0.165286050506   
      0.164743531783   0.164206451833   0.16367802973   0.163161333539   0.162659267435   
      0.162174562009   0.161709767513   0.161267249788   0.160849188533   0.160457577602   
      0.16009422694   0.159760765831   0.159458647093   0.159189151897   0.158953394915   
      0.158752329494   0.158586752651   0.158457309633   0.158364497905   0.158308670387   
      0.161122242639   0.161141495597   0.161199181397   0.161295080316   0.161428824483   
      0.161599895435   0.161807620825   0.162051170374   0.162329551239   0.162641602984   
      0.162985992361   0.163361208175   0.163765556505   0.164197156612   0.164653937864   
      0.165133638036   0.165633803357   0.166151790655   0.166684771957   0.167229741851   
      0.167783527904   0.168342804323   0.168904109032   0.169463864203   0.170018400215   
      0.170563982898   0.171096843821   0.171613213267   0.172109355465   0.17258160553   
      0.173026407515   0.173440352907   0.17382021887   0.174163005515   0.174465971497   
      0.17472666724   0.174942965159   0.175113086281   0.175235622762   0.175309555863   
      0.175334269031   0.175309555863   0.175235622762   0.175113086281   0.174942965159   
      0.17472666724   0.174465971497   0.174163005515   0.17382021887   0.173440352907   
      0.173026407515   0.17258160553   0.172109355465   0.171613213267   0.171096843821   
      0.170563982898   0.170018400215   0.169463864203   0.168904109032   0.168342804323   
      0.167783527904   0.167229741851   0.166684771957   0.166151790655   0.165633803357   
      0.165133638036   0.164653937864   0.164197156612   0.163765556505   0.163361208175   
      0.162985992361   0.162641602984   0.162329551239   0.162051170374   0.161807620825   
      0.161599895435   0.161428824483   0.161295080316   0.161199181397   0.161141495597   
      0.161122242639   0.161141495597   0.161199181397   0.161295080316   0.161428824483   
      0.161599895435   0.161807620825   0.162051170374   0.162329551239   0.162641602984   
      0.162985992361   0.163361208175   0.163765556505   0.164197156612   0.164653937864   
      0.165133638036   0.165633803357   0.166151790655   0.166684771957   0.167229741851   
      0.167783527904   0.168342804323   0.168904109032   0.169463864203   0.170018400215   
      0.170563982898   0.171096843821   0.171613213267   0.172109355465   0.17258160553   
      0.173026407515   0.173440352907   0.17382021887   0.174163005515   0.174465971497   
      0.17472666724   0.174942965159   0.175113086281   0.175235622762   0.175309555863   
      0.175334269031   0.175309555863   0.175235622762   0.175113086281   0.174942965159   
      0.17472666724   0.174465971497   0.174163005515   0.17382021887   0.173440352907   
      0.173026407515   0.17258160553   0.172109355465   0.171613213267   0.171096843821   
      0.170563982898   0.170018400215   0.169463864203   0.168904109032   0.168342804323   
      0.167783527904   0.167229741851   0.166684771957   0.166151790655   0.165633803357   
      0.165133638036   0.164653937864   0.164197156612   0.163765556505   0.163361208175   
      0.162985992361   0.162641602984   0.162329551239   0.162051170374   0.161807620825   
      0.161599895435   0.161428824483   0.161295080316   0.161199181397   0.161141495597   
      0.15829003785   0.158308670387   0.158364497905   0.158457309633   0.158586752651   
      0.158752329494   0.158953394915   0.159189151897   0.159458647093   0.159760765831   
      0.16009422694   0.160457577602   0.160849188533   0.161267249788   0.161709767513   
      0.162174562009   0.162659267435   0.163161333539   0.16367802973   0.164206451833   
      0.164743531783   0.165286050506   0.165830654119   0.166373873543   0.1669121475   
      0.167441848779   0.167959313553   0.168460873423   0.168942889766   0.169401789865   
      0.169834104249   0.170236504572   0.170605841354   0.170939180859   0.1712338404   
      0.171487421365   0.171697839329   0.171863350615   0.171982574801   0.172054512708   
      0.172078559511   0.172054512708   0.171982574801   0.171863350615   0.171697839329   
      0.171487421365   0.1712338404   0.170939180859   0.170605841354   0.170236504572   
      0.169834104249   0.169401789865   0.168942889766   0.168460873423   0.167959313553   
      0.167441848779   0.1669121475   0.166373873543   0.165830654119   0.165286050506   
      0.164743531783   0.164206451833   0.16367802973   0.163161333539   0.162659267435   
      0.162174562009   0.161709767513   0.161267249788   0.160849188533   0.160457577602   
      0.16009422694   0.159760765831   0.159458647093   0.159189151897   0.158953394915   
      0.158752329494   0.158586752651   0.158457309633   0.158364497905   0.158308670387   
      0.152657546861   0.152674913253   0.152726948139   0.152813458177   0.152934119572   
      0.153088475796   0.153275934482   0.153495763611   0.153747087114   0.154028880042   
      0.154339963514   0.15467899965   0.155044486747   0.155434754989   0.155847962974   
      0.156282095408   0.156734962278   0.157204199867   0.15768727392   0.15818148529   
      0.158683978344   0.15919175235   0.159701676032   0.160210505383   0.160714904768   
      0.161211471208   0.161696761705   0.162167323299   0.16261972549   0.163050594553   
      0.163456649198   0.163834736933   0.164181870483   0.164495263539   0.164772365136   
      0.16501089194   0.165208857789   0.165364599841   0.165476800785   0.16554450664   
      0.165567139739   0.16554450664   0.165476800785   0.165364599841   0.165208857789   
      0.16501089194   0.164772365136   0.164495263539   0.164181870483   0.163834736933   
      0.163456649198   0.163050594553   0.16261972549   0.162167323299   0.161696761705   
      0.161211471208   0.160714904768   0.160210505383   0.159701676032   0.15919175235   
      0.158683978344   0.15818148529   0.15768727392   0.157204199867   0.156734962278   
      0.156282095408   0.155847962974   0.155434754989   0.155044486747   0.15467899965   
      0.154339963514   0.154028880042   0.153747087114   0.153495763611   0.153275934482   
      0.153088475796   0.152934119572   0.152813458177   0.152726948139   0.152674913253   
      0.144370501053   0.14438593999   0.144432200767   0.144509114853   0.144616399948   
      0.144753657901   0.144920371876   0.145115902858   0.145339485596   0.145590224134   
      0.145867087086   0.146168902845   0.146494354952   0.146841977869   0.147210153419   
      0.147597108186   0.148000912183   0.148419479083   0.148850568337   0.149291789467   
      0.149740608808   0.150194358931   0.15065025094   0.151105389764   0.151556792495   
      0.152001409729   0.152436149813   0.152857905735   0.153263584387   0.153650137754   
      0.154014595558   0.154354098774   0.154665933406   0.154947563832   0.155196665047   
      0.155411153098   0.15558921305   0.155729323837   0.155830279448   0.155891205938   
      0.155911573877   0.155891205938   0.155830279448   0.155729323837   0.15558921305   
      0.155411153098   0.155196665047   0.154947563832   0.154665933406   0.154354098774   
      0.154014595558   0.153650137754   0.153263584387   0.152857905735   0.152436149813   
      0.152001409729   0.151556792495   0.151105389764   0.15065025094   0.150194358931   
      0.149740608808   0.149291789467   0.148850568337   0.148419479083   0.148000912183   
      0.147597108186   0.147210153419   0.146841977869   0.146494354952   0.146168902845   
      0.145867087086   0.145590224134   0.145339485596   0.145115902858   0.144920371876   
      0.144753657901   0.144616399948   0.144509114853   0.144432200767   0.14438593999   
      0.133817989313   0.133830901394   0.133869591655   0.133933921791   0.134023660091   
      0.134138479665   0.134277956028   0.134441564108   0.134628674761   0.134838550904   
      0.135070343399   0.135323086837   0.135595695407   0.135886959038   0.136195540054   
      0.13651997056   0.136858650835   0.137209848984   0.137571702114   0.137942219311   
      0.138319286646   0.138700674443   0.139084046987   0.139466974811   0.13984694963   
      0.140221401934   0.140587721163   0.14094327831   0.141285450699   0.141611648625   
      0.141919343426   0.14220609651   0.142469588786   0.142707649901   0.142918286663   
      0.143099710003   0.143250359859   0.143368927381   0.143454373916   0.143505946301   
      0.143523188069   0.143505946301   0.143454373916   0.143368927381   0.143250359859   
      0.143099710003   0.142918286663   0.142707649901   0.142469588786   0.14220609651   
      0.141919343426   0.141611648625   0.141285450699   0.14094327831   0.140587721163   
      0.140221401934   0.13984694963   0.139466974811   0.139084046987   0.138700674443   
      0.138319286646   0.137942219311   0.137571702114   0.137209848984   0.136858650835   
      0.13651997056   0.136195540054   0.135886959038   0.135595695407   0.135323086837   
      0.135070343399   0.134838550904   0.134628674761   0.134441564108   0.134277956028   