<?xml version="1.0"?>
<VTKFile type="ImageData" version="0.1" byte_order="LittleEndian">
  <ImageData WholeExtent="0 79 0 19 0 19" Origin="0 0 0" Spacing="1 1 1">
  <Piece Extent="0 79 0 19 0 19">
    <PointData Scalars="density">
       <DataArray type="Float32" Name="reddensity" NumberOfComponents="1" format="ascii">
      0   0   0   0   0   
      0   0   0   0   0   
      0   0   0   0   0   
      0   0   0   0   0   
      0   0   0   0   0   
      0   0   0   0   0   
      0   0   0   0   0   
      0   0   0   0   0   
      0   0   0   0   0   
      0   0   0   0   0   
      0   0   0   0   0   
      0   0   0   0   0   
      0   0   0   0   0   
      0   0   0   0   0   
      0   0   0   0   0   
      0   0   0   0   0   
      0   0   0   0   0   
      0   0   0   0   0   
      0   0   0   0   0   
      0   0   0   0   0   
      0   0   0   0   0   
      0   0   0   0   0   
      0   0   0   0   0   
      0   0   0   0   0   
      0   0   0   0   0   
      0   0   0   0   0   
      0   0   0   0   0   
      0   0   0   0   0   
      0   0   0   0   0   
      0   0   0   0   0   
      0   0   0   0   0   
      0   0   0   0   0   
      0   0   0   0   0   
      0   0   0   0   0   
      0   0   0   0   0   
      0   0   0   0   0   
      0   0   0   0   0   
      0   0   0   0   0   
      0   0   0   0   0   
      0   0   0   0   0   
      0   0   0   0   0   
      0   0   0   0   0   
      0   0   0   0   0   
      0   0   0   0   0   
      0   0   0   0   0   
      0   0   0   0   0   
      0   0   0   0   0   
      0   0   0   0   0   
      0   0   0   0   0   
      0   0   0   0   0   
      0   0   0   0   0   
      0   0   0   0   0   
      0   0   0   0   0   
      0   0   0   0   0   
      0   0   0   0   0   
      0   0   0   0   0   
      0   0   0   0   0   
      0   0   0   0   0   
      0   0   0   0   0   
      0   0   0   0   0   
      0   0   0   0   0   
      0   0   0   0   0   
      0   0   0   0   0   
      0   0   0   0   0   
      0   0   0   0   0   
      0   0   0   0   0   
      0   0   0   0   0   
      0   0   0   0   0   
      0   0   0   0   0   
      0   0   0   0   0   
      0   0   0   0   0   
      0   0   0   0   0   
      0   0   0   0   0   
      0   0   0   0   0   
      0   0   0   0   0   
      0   0   0   0   0   
      0   0   0   0   0   
      0   0   0   0   0   
      0   0   0   0   0   
      0   0   0   0   0   
      0   0   0   0   0   
      0   0   0   0   0   
      0   0   0   0   0   
      0   0   0   0   0   
      0   0   0   0   0   
      0   0   0   0   0   
      0   0   0   0   0   
      0   0   0   0   0   
      0   0   0   0   0   
      0   0   0   0   0   
      0   0   0   0   0   
      0   0   0   0   0   
      0   0   0   0   0   
      0   0   0   0   0   
      0   0   0   0   0   
      0   0   0   0   0   
      0   0   0   0   0   
      0   0   0   0   0   
      0   0   0   0   0   
      0   0   0   0   0   
      0   0   0   0   0   
      0   0   0   0   0   
      0   0   0   0   0   
      0   0   0   0   0   
      0   0   0   0   0   
      0   0   0   0   0   
      0   0   0   0   0   
      0   0   0   0   0   
      0   0   0   0   0   
      0   0   0   0   0   
      0   0   0   0   0   
      0   0   0   0   0   
      0   0   0   0   0   
      0   0   0   0   0   
      0   0   0   0   0   
      0   0   0   0   0   
      0   0   0   0   0   
      0   0   0   0   0   
      0   0   0   0   0   
      0   0   0   0   0   
      0   0   0   0   0   
      0   0   0   0   0   
      0   0   0   0   0   
      0   0   0   0   0   
      0   0   0   0   0   
      0   0   0   0   0   
      0   0   0   0   0   
      0   0   0   0   0   
      0   0   0   0   0   
      0   0   0   0   0   
      0   0   0   0   0   
      0   0   0   0   0   
      0   0   0   0   0   
      0   0   0   0   0   
      0   0   0   0   0   
      0   0   0   0   0   
      0   0   0   0   0   
      0   0   0   0   0   
      0   0   0   0   0   
      0   0   0   0   0   
      0   0   0   0   0   
      0   0   0   0   0   
      0   0   0   0   0   
      0   0   0   0   0   
      0   0   0   0   0   
      0   0   0   0   0   
      0   0   0   0   0   
      0   0   0   0   0   
      0   0   0   0   0   
      0   0   0   0   0   
      0   0   0   0   0   
      0   0   0   0   0   
      0   0   0   0   0   
      0   0   0   0   0   
      0   0   0   0   0   
      0   0   0   0   0   
      0   0   0   0   0   
      0   0   0   0   0   
      0   0   0   0   0   
      0   0   0   0   0   
      0   0   0   0   0   
      0   0   0   0   0   
      0   0   0   0   0   
      0   0   0   0   0   
      0   0   0   0   0   
      0   0   0   0   0   
      0   0   0   0   0   
      0   0   0   0   0   
      0   0   0   0   0   
      0   0   0   0   0   
      0   0   0   0   0   
      0   0   0   0   0   
      0   0   0   0   0   
      0   0   0   0   0   
      0   0   0   0   0   
      0   0   0   0   0   
      0   0   0   0   0   
      0   0   0   0   0   
      0   0   0   0   0   
      0   0   0   0   0   
      0   0   0   0   0   
      0   0   0   0   0   
      0   0   0   0   0   
      0   0   0   0   0   
      0   0   0   0   0   
      0   0   0   0   0   
      0   0   0   0   0   
      0   0   0   0   0   
      0   0   0   0   0   
      0   0   0   0   0   
      0   0   0   0   0   
      0   0   0   0   0   
      0   0   0   0   0   
      0   0   0   0   0   
      0   0   0   0   0   
      0   0   0   0   0   
      0   0   0   0   0   
      0   0   0   0   0   
      0   0   0   0   0   
      0   0   0   0   0   
      0   0   0   0   0   
      0   0   0   0   0   
      0   0   0   0   0   
      0   0   0   0   0   
      0   0   0   0   0   
      0   0   0   0   0   
      0   0   0   0   0   
      0   0   0   0   0   
      0   0   0   0   0   
      0   0   0   0   0   
      0   0   0   0   0   
      0   0   0   0   0   
      0   0   0   0   0   
      0   0   0   0   0   
      0   0   0   0   0   
      0   0   0   0   0   
      0   0   0   0   0   
      0   0   0   0   0   
      0   0   0   0   0   
      0   0   0   0   0   
      0   0   0   0   0   
      0   0   0   0   0   
      0   0   0   0   0   
      0   0   0   0   0   
      0   0   0   0   0   
      0   0   0   0   0   
      0   0   0   0   0   
      0   0   0   0   0   
      0   0   0   0   0   
      0   0   0   0   0   
      0   0   0   0   0   
      0   0   0   0   0   
      0   0   0   0   0   
      0   0   0   0   0   
      0   0   0   0   0   
      0   0   0   0   0   
      0   0   0   0   0   
      0   0   0   0   0   
      0   0   0   0   0   
      0   0   0   0   0   
      0   0   0   0   0   
      0   0   0   0   0   
      0   0   0   0   0   
      0   0   0   0   0   
      0   0   0   0   0   
      0   0   0   0   0   
      0   0   0   0   0   
      0   0   0   0   0   
      0   0   0   0   0   
      0   0   0   0   0   
      0   0   0   0   0   
      0   0   0   0   0   
      0   0   0   0   0   
      0   0   0   0   0   
      0   0   0   0   0   
      0   0   0   0   0   
      0   0   0   0   0   
      0   0   0   0   0   
      0   0   0   0   0   
      0   0   0   0   0   
      0   0   0   0   0   
      0   0   0   0   0   
      0   0   0   0   0   
      0   0   0   0   0   
      0   0   0   0   0   
      0   0   0   0   0   
      0   0   0   0   0   
      0   0   0   0   0   
      0   0   0   0   0   
      0   0   0   0   0   
      0   0   0   0   0   
      0   0   0   0   0   
      0   0   0   0   0   
      0   0   0   0   0   
      0   0   0   0   0   
      0   0   0   0   0   
      0   0   0   0   0   
      0   0   0   0   0   
      0   0   0   0   0   
      0   0   0   0   0   
      0   0   0   0   0   
      0   0   0   0   0   
      0   0   0   0   0   
      0   0   0   0   0   
      0   0   0   0   0   
      0   0   0   0   0   
      0   0   0   0   0   
      0   0   0   0   0   
      0   0   0   0   0   
      0   0   0   0   0   
      0   0   0   0   0   
      0   0   0   0   0   
      0   0   0   0   0   
      0   0   0   0   0   
      0   0   0   0   0   
      0   0   0   0   0   
      0   0   0   0   0   
      0   0   0   0   0   
      0   0   0   0   0   
      0   0   0   0   0   
      0   0   0   0   0   
      0   0   0   0   0   
      0   0   0   0   0   
      0   0   0   0   0   
      0   0   0   0   0   
      0   0   0   0   0   
      0   0   0   0   0   
      0   0   0   0   0   
      0   0   0   0   0   
      0   0   0   0   0   
      0   0   0   0   0   
      0   0   0   0   0   
      0   0   0   0   0   
      0   0   0   0   0   
      0   0   0   0   0   
      0   0   0   0   0   
      0   0   0   0   0   
      0   0   0   0   0   
      0   0   0   0   0   
      0   0   0   0   0   
      0   0   0   0   0   
      0   0   0   0   0   
      0   0   0   0   0   
      0   0   0   0   0   
      0   0   0   0   0   
      0   0   0   0   0   
      0   0   0   0   0   
      0   0   0   0   0   
      0   0   0   0   0   
      0   0   0   0   0   
      0   0   0   0   0   
      0   0   0   0   0   
      0   0   0   0   0   
      0   0   0   0   0   
      0   0   0   0   0   
      0   0   0   0   0   
      0.0810850801777   0.081094961952   0.0811246324705   0.0811741673028   0.0812436923123   
      0.081333383424   0.0814434660831   0.0815742141738   0.0817259480719   0.0818990314035   
      0.0820938659572   0.0823108840664   0.0825505376407   0.0828132828993   0.083099559762   
      0.0834097648122   0.0837442168008   0.0841031138315   0.0844864817156   0.0848941135136   
      0.0853255010231   0.0857797599025   0.086255551206   0.0867510032514   0.0872636388478   
      0.0877903138152   0.0883271732896   0.0888696323755   0.0894123871717   0.0899494610176   
      0.0904742889923   0.0909798413739   0.0914587840852   0.091903671363   0.0923071632301   
      0.0926622580839   0.0929625290477   0.0932023518277   0.0933771117605   0.0934833785439   
      0.0935190387535   0.0934833785439   0.0933771117605   0.0932023518277   0.0929625290477   
      0.0926622580839   0.0923071632301   0.091903671363   0.0914587840852   0.0909798413739   
      0.0904742889923   0.0899494610176   0.0894123871717   0.0888696323755   0.0883271732896   
      0.0877903138152   0.0872636388478   0.0867510032514   0.086255551206   0.0857797599025   
      0.0853255010231   0.0848941135136   0.0844864817156   0.0841031138315   0.0837442168008   
      0.0834097648122   0.083099559762   0.0828132828993   0.0825505376407   0.0823108840664   
      0.0820938659572   0.0818990314035   0.0817259480719   0.0815742141738   0.0814434660831   
      0.081333383424   0.0812436923123   0.0811741673028   0.0811246324705   0.081094961952   
      0.0885072081574   0.0885211476371   0.0885630066543   0.0886329068985   0.0887310509883   
      0.0888577220172   0.0890132825893   0.0891981729895   0.0894129079987   0.0896580717062   
      0.0899343094915   0.0902423161535   0.0905828189688   0.0909565542758   0.0913642360502   
      0.0918065148908   0.0922839259234   0.0927968244217   0.0933453084692   0.093929128815   
      0.0945475871975   0.0951994258252   0.0958827123234   0.096594726153   0.0973318541015   
      0.0980895037006   0.0988620441119   0.0996427839246   0.100423994284   0.101196983778   
      0.101952228635   0.102679558221   0.103368391921   0.104008019553   0.104587913937   
      0.105098061428   0.105529294351   0.105873608548   0.106124449608   0.106276952802   
      0.106328124113   0.106276952802   0.106124449608   0.105873608548   0.105529294351   
      0.105098061428   0.104587913937   0.104008019553   0.103368391921   0.102679558221   
      0.101952228635   0.101196983778   0.100423994284   0.0996427839246   0.0988620441119   
      0.0980895037006   0.0973318541015   0.096594726153   0.0958827123234   0.0951994258252   
      0.0945475871975   0.093929128815   0.0933453084692   0.0927968244217   0.0922839259234   
      0.0918065148908   0.0913642360502   0.0909565542758   0.0905828189688   0.0902423161535   
      0.0899343094915   0.0896580717062   0.0894129079987   0.0891981729895   0.0890132825893   
      0.0888577220172   0.0887310509883   0.0886329068985   0.0885630066543   0.0885211476371   
      0.100797076227   0.100819466793   0.100886712359   0.100999034402   0.101156801548   
      0.101360528525   0.101610874114   0.101908637444   0.10225475177   0.102650274575   
      0.103096372548   0.103594299643   0.104145366122   0.104750896167   0.105412171489   
      0.106130358311   0.106906415367   0.107740981127   0.108634239529   0.109585765034   
      0.110594349886   0.111657819027   0.112772840886   0.113934745106   0.115137360739   
      0.116372890097   0.117631833916   0.118902982451   0.120173484399   0.121429001238   
      0.122653949071   0.123831823817   0.124945599387   0.12597818292   0.126912906876   
      0.127734035078   0.128427258909   0.128980160547   0.129382622259   0.12962716379   
      0.129709193615   0.12962716379   0.129382622259   0.128980160547   0.128427258909   
      0.127734035078   0.126912906876   0.12597818292   0.124945599387   0.123831823817   
      0.122653949071   0.121429001238   0.120173484399   0.118902982451   0.117631833916   
      0.116372890097   0.115137360739   0.113934745106   0.112772840886   0.111657819027   
      0.110594349886   0.109585765034   0.108634239529   0.107740981127   0.106906415367   
      0.106130358311   0.105412171489   0.104750896167   0.104145366122   0.103594299643   
      0.103096372548   0.102650274575   0.10225475177   0.101908637444   0.101610874114   
      0.101360528525   0.101156801548   0.100999034402   0.100886712359   0.100819466793   
      0.110375649852   0.110407149102   0.110501757985   0.110659809602   0.110881857981   
      0.111168675902   0.111521250917   0.111940778536   0.112428651213   0.112986441332   
      0.113615875946   0.114318800532   0.115097128585   0.115952773512   0.116887559099   
      0.11790310496   0.119000683947   0.120181049684   0.121444234253   0.122789318785   
      0.124214183065   0.125715244293   0.127287199253   0.128922787981   0.130612599774   
      0.132344943491   0.134105802915   0.135878894221   0.137645836427   0.139386437677   
      0.141079091227   0.142701266276   0.14423007147   0.145642863867   0.146917874001   
      0.148034818191   0.148975472184   0.149724184599   0.150268313723   0.150598576095   
      0.150709299494   0.150598576095   0.150268313723   0.149724184599   0.148975472184   
      0.148034818191   0.146917874001   0.145642863867   0.14423007147   0.142701266276   
      0.141079091227   0.139386437677   0.137645836427   0.135878894221   0.134105802915   
      0.132344943491   0.130612599774   0.128922787981   0.127287199253   0.125715244293   
      0.124214183065   0.122789318785   0.121444234253   0.120181049684   0.119000683947   
      0.11790310496   0.116887559099   0.115952773512   0.115097128585   0.114318800532   
      0.113615875946   0.112986441332   0.112428651213   0.111940778536   0.111521250917   
      0.111168675902   0.110881857981   0.110659809602   0.110501757985   0.110407149102   
      0.119159880468   0.119200574015   0.119322803253   0.119527013358   0.119813944087   
      0.120184625783   0.120640372404   0.121182770099   0.121813659332   0.122535108003   
      0.123349372341   0.124258841799   0.125265963567   0.126373141979   0.127582608056   
      0.128896254859   0.130315435525   0.131840722959   0.133471633267   0.135206319251   
      0.137041245374   0.138970861167   0.14098729538   0.143080097335   0.145236053916   
      0.147439109516   0.149670411492   0.151908495346   0.15412961272   0.156308192794   
      0.158417415674   0.160429866771   0.162318235345   0.164056019184   0.165618200474   
      0.166981864469   0.168126741022   0.169035657833   0.169694902017   0.170094492196   
      0.170228366472   0.170094492196   0.169694902017   0.169035657833   0.168126741022   
      0.166981864469   0.165618200474   0.164056019184   0.162318235345   0.160429866771   
      0.158417415674   0.156308192794   0.15412961272   0.151908495346   0.149670411492   
      0.147439109516   0.145236053916   0.143080097335   0.14098729538   0.138970861167   
      0.137041245374   0.135206319251   0.133471633267   0.131840722959   0.130315435525   
      0.128896254859   0.127582608056   0.126373141979   0.125265963567   0.124258841799   
      0.123349372341   0.122535108003   0.121813659332   0.121182770099   0.120640372404   
      0.120184625783   0.119813944087   0.119527013358   0.119322803253   0.119200574015   
      0.126705794712   0.126754608599   0.126901230827   0.127146202076   0.127490419786   
      0.127935131709   0.128481925009   0.129132708952   0.129889688535   0.130755325671   
      0.131732283796   0.132823351013   0.134031336353   0.135358933405   0.136808545851   
      0.138382070415   0.140080634777   0.14190429128   0.143851671919   0.145919616022   
      0.148102788805   0.150393315875   0.152780464557   0.155250406372   0.157786094673   
      0.160367286443   0.162970727385   0.165570505423   0.168138561453   0.17064533024   
      0.173060471334   0.17535364226   0.177495265055   0.179457242424   0.181213590055   
      0.182740964662   0.184019080827   0.185031021406   0.185763454777   0.186206776772   
      0.186355195778   0.186206776772   0.185763454777   0.185031021406   0.184019080827   
      0.182740964662   0.181213590055   0.179457242424   0.177495265055   0.17535364226   
      0.173060471334   0.17064533024   0.168138561453   0.165570505423   0.162970727385   
      0.160367286443   0.157786094673   0.155250406372   0.152780464557   0.150393315875   
      0.148102788805   0.145919616022   0.143851671919   0.14190429128   0.140080634777   
      0.138382070415   0.136808545851   0.135358933405   0.134031336353   0.132823351013   
      0.131732283796   0.130755325671   0.129889688535   0.129132708952   0.128481925009   
      0.127935131709   0.127490419786   0.127146202076   0.126901230827   0.126754608599   
      0.132642954703   0.132698152145   0.132863949115   0.133140958039   0.133530194267   
      0.134033066906   0.134651363656   0.135387227229   0.136243120102   0.137221773499   
      0.13832611561   0.139559173306   0.14092394105   0.142423210614   0.14405935584   
      0.145834068315   0.147748042824   0.149800615964   0.151989367465   0.154309701208   
      0.156754431093   0.159313404449   0.161973201279   0.164716949297   0.167524291213   
      0.170371531093   0.17323197137   0.176076432955   0.17887393075   0.181592459446   
      0.184199832831   0.186664516354   0.188956397622   0.191047451691   0.192912274743   
      0.19452847772   0.195876947839   0.196941998314   0.197711434051   0.198176563375   
      0.198332183696   0.198176563375   0.197711434051   0.196941998314   0.195876947839   
      0.19452847772   0.192912274743   0.191047451691   0.188956397622   0.186664516354   
      0.184199832831   0.181592459446   0.17887393075   0.176076432955   0.17323197137   
      0.170371531093   0.167524291213   0.164716949297   0.161973201279   0.159313404449   
      0.156754431093   0.154309701208   0.151989367465   0.149800615964   0.147748042824   
      0.145834068315   0.14405935584   0.142423210614   0.14092394105   0.139559173306   
      0.13832611561   0.137221773499   0.136243120102   0.135387227229   0.134651363656   
      0.134033066906   0.133530194267   0.133140958039   0.132863949115   0.132698152145   
      0.136696020042   0.136755538245   0.136934313111   0.137233003477   0.137652700588   
      0.138194916556   0.138861565533   0.139654934803   0.140577642106   0.141632574527   
      0.142822803369   0.14415146865   0.145621626361   0.147236051795   0.14899699316   
      0.150905871996   0.152962930648   0.155166832651   0.157514229154   0.159999313129   
      0.162613392023   0.165344517327   0.168177214313   0.171092354988   0.17406721069   
      0.177075707147   0.180088885377   0.183075549095   0.18600305712   0.188838201937   
      0.191548106393   0.194101071341   0.196467317421   0.198619581725   0.200533551193   
      0.202188135296   0.203565597865   0.204651579607   0.205435048602   0.205908216117   
      0.206066450723   0.205908216117   0.205435048602   0.204651579607   0.203565597865   
      0.202188135296   0.200533551193   0.198619581725   0.196467317421   0.194101071341   
      0.191548106393   0.188838201937   0.18600305712   0.183075549095   0.180088885377   
      0.177075707147   0.17406721069   0.171092354988   0.168177214313   0.165344517327   
      0.162613392023   0.159999313129   0.157514229154   0.155166832651   0.152962930648   
      0.150905871996   0.14899699316   0.147236051795   0.145621626361   0.14415146865   
      0.142822803369   0.141632574527   0.140577642106   0.139654934803   0.138861565533   
      0.138194916556   0.137652700588   0.137233003477   0.136934313111   0.136755538245   
      0.138741342909   0.138803025925   0.138988302809   0.139297854881   0.13973281   
      0.140294729643   0.14098558795   0.141807739751   0.142763873649   0.143856945192   
      0.14509008425   0.146466469922   0.147989165872   0.149660909249   0.151483847542   
      0.153459220313   0.155586986981   0.157865407987   0.160290594602   0.162856051769   
      0.165552247691   0.168366251624   0.171281485543   0.174277633888   0.177330747094   
      0.180413558787   0.183496014826   0.186545987922   0.189530128695   0.192414787164   
      0.195166931295   0.197754992741   0.200149583359   0.202324046429   0.204254829683   
      0.205921689041   0.207307749227   0.208399458507   0.209186479235   0.209661554733   
      0.209820387421   0.209661554733   0.209186479235   0.208399458507   0.207307749227   
      0.205921689041   0.204254829683   0.202324046429   0.200149583359   0.197754992741   
      0.195166931295   0.192414787164   0.189530128695   0.186545987922   0.183496014826   
      0.180413558787   0.177330747094   0.174277633888   0.171281485543   0.168366251624   
      0.165552247691   0.162856051769   0.160290594602   0.157865407987   0.155586986981   
      0.153459220313   0.151483847542   0.149660909249   0.147989165872   0.146466469922   
      0.14509008425   0.143856945192   0.142763873649   0.141807739751   0.14098558795   
      0.140294729643   0.13973281   0.139297854881   0.138988302809   0.138803025925   
      0.138741342909   0.138803025925   0.138988302809   0.139297854881   0.13973281   
      0.140294729643   0.14098558795   0.141807739751   0.142763873649   0.143856945192   
      0.14509008425   0.146466469922   0.147989165872   0.149660909249   0.151483847542   
      0.153459220313   0.155586986981   0.157865407987   0.160290594602   0.162856051769   
      0.165552247691   0.168366251624   0.171281485543   0.174277633888   0.177330747094   
      0.180413558787   0.183496014826   0.186545987922   0.189530128695   0.192414787164   
      0.195166931295   0.197754992741   0.200149583359   0.202324046429   0.204254829683   
      0.205921689041   0.207307749227   0.208399458507   0.209186479235   0.209661554733   
      0.209820387421   0.209661554733   0.209186479235   0.208399458507   0.207307749227   
      0.205921689041   0.204254829683   0.202324046429   0.200149583359   0.197754992741   
      0.195166931295   0.192414787164   0.189530128695   0.186545987922   0.183496014826   
      0.180413558787   0.177330747094   0.174277633888   0.171281485543   0.168366251624   
      0.165552247691   0.162856051769   0.160290594602   0.157865407987   0.155586986981   
      0.153459220313   0.151483847542   0.149660909249   0.147989165872   0.146466469922   
      0.14509008425   0.143856945192   0.142763873649   0.141807739751   0.14098558795   
      0.140294729643   0.13973281   0.139297854881   0.138988302809   0.138803025925   
      0.136696020042   0.136755538245   0.136934313111   0.137233003477   0.137652700588   
      0.138194916556   0.138861565533   0.139654934803   0.140577642106   0.141632574527   
      0.142822803369   0.14415146865   0.145621626361   0.147236051795   0.14899699316   
      0.150905871996   0.152962930648   0.155166832651   0.157514229154   0.159999313129   
      0.162613392023   0.165344517327   0.168177214313   0.171092354988   0.17406721069   
      0.177075707147   0.180088885377   0.183075549095   0.18600305712   0.188838201937   
      0.191548106393   0.194101071341   0.196467317421   0.198619581725   0.200533551193   
      0.202188135296   0.203565597865   0.204651579607   0.205435048602   0.205908216117   
      0.206066450723   0.205908216117   0.205435048602   0.204651579607   0.203565597865   
      0.202188135296   0.200533551193   0.198619581725   0.196467317421   0.194101071341   
      0.191548106393   0.188838201937   0.18600305712   0.183075549095   0.180088885377   
      0.177075707147   0.17406721069   0.171092354988   0.168177214313   0.165344517327   
      0.162613392023   0.159999313129   0.157514229154   0.155166832651   0.152962930648   
      0.150905871996   0.14899699316   0.147236051795   0.145621626361   0.14415146865   
      0.142822803369   0.141632574527   0.140577642106   0.139654934803   0.138861565533   
      0.138194916556   0.137652700588   0.137233003477   0.136934313111   0.136755538245   
      0.132642954703   0.132698152145   0.132863949115   0.133140958039   0.133530194267   
      0.134033066906   0.134651363656   0.135387227229   0.136243120102   0.137221773499   
      0.13832611561   0.139559173306   0.14092394105   0.142423210614   0.14405935584   
      0.145834068315   0.147748042824   0.149800615964   0.151989367465   0.154309701208   
      0.156754431093   0.159313404449   0.161973201279   0.164716949297   0.167524291213   
      0.170371531093   0.17323197137   0.176076432955   0.17887393075   0.181592459446   
      0.184199832831   0.186664516354   0.188956397622   0.191047451691   0.192912274743   
      0.19452847772   0.195876947839   0.196941998314   0.197711434051   0.198176563375   
      0.198332183696   0.198176563375   0.197711434051   0.196941998314   0.195876947839   
      0.19452847772   0.192912274743   0.191047451691   0.188956397622   0.186664516354   
      0.184199832831   0.181592459446   0.17887393075   0.176076432955   0.17323197137   
      0.170371531093   0.167524291213   0.164716949297   0.161973201279   0.159313404449   
      0.156754431093   0.154309701208   0.151989367465   0.149800615964   0.147748042824   
      0.145834068315   0.14405935584   0.142423210614   0.14092394105   0.139559173306   
      0.13832611561   0.137221773499   0.136243120102   0.135387227229   0.134651363656   
      0.134033066906   0.133530194267   0.133140958039   0.132863949115   0.132698152145   
      0.126705794712   0.126754608599   0.126901230827   0.127146202076   0.127490419786   
      0.127935131709   0.128481925009   0.129132708952   0.129889688535   0.130755325671   
      0.131732283796   0.132823351013   0.134031336353   0.135358933405   0.136808545851   
      0.138382070415   0.140080634777   0.14190429128   0.143851671919   0.145919616022   
      0.148102788805   0.150393315875   0.152780464557   0.155250406372   0.157786094673   
      0.160367286443   0.162970727385   0.165570505423   0.168138561453   0.17064533024   
      0.173060471334   0.17535364226   0.177495265055   0.179457242424   0.181213590055   
      0.182740964662   0.184019080827   0.185031021406   0.185763454777   0.186206776772   
      0.186355195778   0.186206776772   0.185763454777   0.185031021406   0.184019080827   
      0.182740964662   0.181213590055   0.179457242424   0.177495265055   0.17535364226   
      0.173060471334   0.17064533024   0.168138561453   0.165570505423   0.162970727385   
      0.160367286443   0.157786094673   0.155250406372   0.152780464557   0.150393315875   
      0.148102788805   0.145919616022   0.143851671919   0.14190429128   0.140080634777   
      0.138382070415   0.136808545851   0.135358933405   0.134031336353   0.132823351013   
      0.131732283796   0.130755325671   0.129889688535   0.129132708952   0.128481925009   
      0.127935131709   0.127490419786   0.127146202076   0.126901230827   0.126754608599   
      0.119159880468   0.119200574015   0.119322803253   0.119527013358   0.119813944087   
      0.120184625783   0.120640372404   0.121182770099   0.121813659332   0.122535108003   
      0.123349372341   0.124258841799   0.125265963567   0.126373141979   0.127582608056   
      0.128896254859   0.130315435525   0.131840722959   0.133471633267   0.135206319251   
      0.137041245374   0.138970861167   0.14098729538   0.143080097335   0.145236053916   
      0.147439109516   0.149670411492   0.151908495346   0.15412961272   0.156308192794   
      0.158417415674   0.160429866771   0.162318235345   0.164056019184   0.165618200474   
      0.166981864469   0.168126741022   0.169035657833   0.169694902017   0.170094492196   
      0.170228366472   0.170094492196   0.169694902017   0.169035657833   0.168126741022   
      0.166981864469   0.165618200474   0.164056019184   0.162318235345   0.160429866771   
      0.158417415674   0.156308192794   0.15412961272   0.151908495346   0.149670411492   
      0.147439109516   0.145236053916   0.143080097335   0.14098729538   0.138970861167   
      0.137041245374   0.135206319251   0.133471633267   0.131840722959   0.130315435525   
      0.128896254859   0.127582608056   0.126373141979   0.125265963567   0.124258841799   
      0.123349372341   0.122535108003   0.121813659332   0.121182770099   0.120640372404   