<?xml version="1.0"?>
<VTKFile type="ImageData" version="0.1" byte_order="LittleEndian">
  <ImageData WholeExtent="0 79 0 19 0 19" Origin="0 0 0" Spacing="1 1 1">
  <Piece Extent="0 79 0 19 0 19">
    <PointData Scalars="density">
       <DataArray type="Float32" Name="reddensity" NumberOfComponents="1" format="ascii">
      0   0   0   0   0   
      0   0   0   0   0   
      0   0   0   0   0   
      0   0   0   0   0   
      0   0   0   0   0   
      0   0   0   0   0   
      0   0   0   0   0   
      0   0   0   0   0   
      0   0   0   0   0   
      0   0   0   0   0   
      0   0   0   0   0   
      0   0   0   0   0   
      0   0   0   0   0   
      0   0   0   0   0   
      0   0   0   0   0   
      0   0   0   0   0   
      0   0   0   0   0   
      0   0   0   0   0   
      0   0   0   0   0   
      0   0   0   0   0   
      0   0   0   0   0   
      0   0   0   0   0   
      0   0   0   0   0   
      0   0   0   0   0   
      0   0   0   0   0   
      0   0   0   0   0   
      0   0   0   0   0   
      0   0   0   0   0   
      0   0   0   0   0   
      0   0   0   0   0   
      0   0   0   0   0   
      0   0   0   0   0   
      0   0   0   0   0   
      0   0   0   0   0   
      0   0   0   0   0   
      0   0   0   0   0   
      0   0   0   0   0   
      0   0   0   0   0   
      0   0   0   0   0   
      0   0   0   0   0   
      0   0   0   0   0   
      0   0   0   0   0   
      0   0   0   0   0   
      0   0   0   0   0   
      0   0   0   0   0   
      0   0   0   0   0   
      0   0   0   0   0   
      0   0   0   0   0   
      0   0   0   0   0   
      0   0   0   0   0   
      0   0   0   0   0   
      0   0   0   0   0   
      0   0   0   0   0   
      0   0   0   0   0   
      0   0   0   0   0   
      0   0   0   0   0   
      0   0   0   0   0   
      0   0   0   0   0   
      0   0   0   0   0   
      0   0   0   0   0   
      0   0   0   0   0   
      0   0   0   0   0   
      0   0   0   0   0   
      0   0   0   0   0   
      0   0   0   0   0   
      0   0   0   0   0   
      0   0   0   0   0   
      0   0   0   0   0   
      0   0   0   0   0   
      0   0   0   0   0   
      0   0   0   0   0   
      0   0   0   0   0   
      0   0   0   0   0   
      0   0   0   0   0   
      0   0   0   0   0   
      0   0   0   0   0   
      0   0   0   0   0   
      0   0   0   0   0   
      0   0   0   0   0   
      0   0   0   0   0   
      0   0   0   0   0   
      0   0   0   0   0   
      0   0   0   0   0   
      0   0   0   0   0   
      0   0   0   0   0   
      0   0   0   0   0   
      0   0   0   0   0   
      0   0   0   0   0   
      0   0   0   0   0   
      0   0   0   0   0   
      0   0   0   0   0   
      0   0   0   0   0   
      0   0   0   0   0   
      0   0   0   0   0   
      0   0   0   0   0   
      0   0   0   0   0   
      0   0   0   0   0   
      0   0   0   0   0   
      0   0   0   0   0   
      0   0   0   0   0   
      0   0   0   0   0   
      0   0   0   0   0   
      0   0   0   0   0   
      0   0   0   0   0   
      0   0   0   0   0   
      0   0   0   0   0   
      0   0   0   0   0   
      0   0   0   0   0   
      0   0   0   0   0   
      0   0   0   0   0   
      0   0   0   0   0   
      0   0   0   0   0   
      0   0   0   0   0   
      0   0   0   0   0   
      0   0   0   0   0   
      0   0   0   0   0   
      0   0   0   0   0   
      0   0   0   0   0   
      0   0   0   0   0   
      0   0   0   0   0   
      0   0   0   0   0   
      0   0   0   0   0   
      0   0   0   0   0   
      0   0   0   0   0   
      0   0   0   0   0   
      0   0   0   0   0   
      0   0   0   0   0   
      0   0   0   0   0   
      0   0   0   0   0   
      0   0   0   0   0   
      0   0   0   0   0   
      0   0   0   0   0   
      0   0   0   0   0   
      0   0   0   0   0   
      0   0   0   0   0   
      0   0   0   0   0   
      0   0   0   0   0   
      0   0   0   0   0   
      0   0   0   0   0   
      0   0   0   0   0   
      0   0   0   0   0   
      0   0   0   0   0   
      0   0   0   0   0   
      0   0   0   0   0   
      0   0   0   0   0   
      0   0   0   0   0   
      0   0   0   0   0   
      0   0   0   0   0   
      0   0   0   0   0   
      0   0   0   0   0   
      0   0   0   0   0   
      0   0   0   0   0   
      0   0   0   0   0   
      0   0   0   0   0   
      0   0   0   0   0   
      0   0   0   0   0   
      0   0   0   0   0   
      0   0   0   0   0   
      0   0   0   0   0   
      0   0   0   0   0   
      0   0   0   0   0   
      0   0   0   0   0   
      0   0   0   0   0   
      0   0   0   0   0   
      0   0   0   0   0   
      0   0   0   0   0   
      0   0   0   0   0   
      0   0   0   0   0   
      0   0   0   0   0   
      0   0   0   0   0   
      0   0   0   0   0   
      0   0   0   0   0   
      0   0   0   0   0   
      0   0   0   0   0   
      0   0   0   0   0   
      0   0   0   0   0   
      0   0   0   0   0   
      0   0   0   0   0   
      0   0   0   0   0   
      0   0   0   0   0   
      0   0   0   0   0   
      0   0   0   0   0   
      0   0   0   0   0   
      0   0   0   0   0   
      0   0   0   0   0   
      0   0   0   0   0   
      0   0   0   0   0   
      0   0   0   0   0   
      0   0   0   0   0   
      0   0   0   0   0   
      0   0   0   0   0   
      0   0   0   0   0   
      0   0   0   0   0   
      0   0   0   0   0   
      0   0   0   0   0   
      0   0   0   0   0   
      0   0   0   0   0   
      0   0   0   0   0   
      0   0   0   0   0   
      0   0   0   0   0   
      0   0   0   0   0   
      0   0   0   0   0   
      0   0   0   0   0   
      0   0   0   0   0   
      0   0   0   0   0   
      0   0   0   0   0   
      0   0   0   0   0   
      0   0   0   0   0   
      0   0   0   0   0   
      0   0   0   0   0   
      0   0   0   0   0   
      0   0   0   0   0   
      0   0   0   0   0   
      0   0   0   0   0   
      0   0   0   0   0   
      0   0   0   0   0   
      0   0   0   0   0   
      0   0   0   0   0   
      0   0   0   0   0   
      0   0   0   0   0   
      0   0   0   0   0   
      0   0   0   0   0   
      0   0   0   0   0   
      0   0   0   0   0   
      0   0   0   0   0   
      0   0   0   0   0   
      0   0   0   0   0   
      0   0   0   0   0   
      0   0   0   0   0   
      0   0   0   0   0   
      0   0   0   0   0   
      0   0   0   0   0   
      0   0   0   0   0   
      0   0   0   0   0   
      0   0   0   0   0   
      0   0   0   0   0   
      0   0   0   0   0   
      0   0   0   0   0   
      0   0   0   0   0   
      0   0   0   0   0   
      0   0   0   0   0   
      0   0   0   0   0   
      0   0   0   0   0   
      0   0   0   0   0   
      0   0   0   0   0   
      0   0   0   0   0   
      0   0   0   0   0   
      0   0   0   0   0   
      0   0   0   0   0   
      0   0   0   0   0   
      0   0   0   0   0   
      0   0   0   0   0   
      0   0   0   0   0   
      0   0   0   0   0   
      0   0   0   0   0   
      0   0   0   0   0   
      0   0   0   0   0   
      0   0   0   0   0   
      0   0   0   0   0   
      0   0   0   0   0   
      0   0   0   0   0   
      0   0   0   0   0   
      0   0   0   0   0   
      0   0   0   0   0   
      0   0   0   0   0   
      0   0   0   0   0   
      0   0   0   0   0   
      0   0   0   0   0   
      0   0   0   0   0   
      0   0   0   0   0   
      0   0   0   0   0   
      0   0   0   0   0   
      0   0   0   0   0   
      0   0   0   0   0   
      0   0   0   0   0   
      0   0   0   0   0   
      0   0   0   0   0   
      0   0   0   0   0   
      0   0   0   0   0   
      0   0   0   0   0   
      0   0   0   0   0   
      0   0   0   0   0   
      0   0   0   0   0   
      0   0   0   0   0   
      0   0   0   0   0   
      0   0   0   0   0   
      0   0   0   0   0   
      0   0   0   0   0   
      0   0   0   0   0   
      0   0   0   0   0   
      0   0   0   0   0   
      0   0   0   0   0   
      0   0   0   0   0   
      0   0   0   0   0   
      0   0   0   0   0   
      0   0   0   0   0   
      0   0   0   0   0   
      0   0   0   0   0   
      0   0   0   0   0   
      0   0   0   0   0   
      0   0   0   0   0   
      0   0   0   0   0   
      0   0   0   0   0   
      0   0   0   0   0   
      0   0   0   0   0   
      0   0   0   0   0   
      0   0   0   0   0   
      0   0   0   0   0   
      0   0   0   0   0   
      0   0   0   0   0   
      0   0   0   0   0   
      0   0   0   0   0   
      0   0   0   0   0   
      0   0   0   0   0   
      0   0   0   0   0   
      0   0   0   0   0   
      0   0   0   0   0   
      0   0   0   0   0   
      0   0   0   0   0   
      0   0   0   0   0   
      0   0   0   0   0   
      0   0   0   0   0   
      0   0   0   0   0   
      0   0   0   0   0   
      0   0   0   0   0   
      0   0   0   0   0   
      0   0   0   0   0   
      0   0   0   0   0   
      0   0   0   0   0   
      0   0   0   0   0   
      0   0   0   0   0   
      0   0   0   0   0   
      0   0   0   0   0   
      0   0   0   0   0   
      0   0   0   0   0   
      0   0   0   0   0   
      0.0846231504582   0.0846255849271   0.0846328783521   0.0846450007502   0.0846619020287   
      0.0846835118074   0.084709739181   0.0847404724302   0.0847755786958   0.0848149036322   
      0.0848582710584   0.0849054826309   0.0849563175615   0.0850105324112   0.0850678609887   
      0.0851280143867   0.0851906811924   0.0852555279045   0.0853221995947   0.0853903208461   
      0.0854594970011   0.0855293157459   0.0855993490555   0.0856691555144   0.0857382830209   
      0.0858062718739   0.0858726582294   0.0859369779018   0.0859987704749   0.0860575836725   
      0.0861129779277   0.0861645310793   0.0862118431128   0.086254540855   0.0862922825291   
      0.0863247620706   0.0863517131072   0.0863729125102   0.0863881834302   0.0863973977434   
      0.0864004778449   0.0863973977434   0.0863881834302   0.0863729125102   0.0863517131072   
      0.0863247620706   0.0862922825291   0.086254540855   0.0862118431128   0.0861645310793   
      0.0861129779277   0.0860575836725   0.0859987704749   0.0859369779018   0.0858726582294   
      0.0858062718739   0.0857382830209   0.0856691555144   0.0855993490555   0.0855293157459   
      0.0854594970011   0.0853903208461   0.0853221995947   0.0852555279045   0.0851906811924   
      0.0851280143867   0.0850678609887   0.0850105324112   0.0849563175615   0.0849054826309   
      0.0848582710584   0.0848149036322   0.0847755786958   0.0847404724302   0.084709739181   
      0.0846835118074   0.0846619020287   0.0846450007502   0.0846328783521   0.0846255849271   
      0.0936097350453   0.0936132313013   0.0936237058672   0.0936411160801   0.0936653906479   
      0.0936964293764   0.0937341028016   0.0937782517439   0.0938286868017   0.093885187811   
      0.0939475032981   0.0940153499593   0.0940884122055   0.0941663418131   0.094248757727   
      0.0943352460646   0.0944253603716   0.0945186221804   0.094614521926   0.0947125202655   
      0.0948120498519   0.0949125175994   0.0950133074765   0.0951137838481   0.0952132953793   
      0.0953111794974   0.0954067673933   0.0954993895284   0.0955883815902   0.0956730908288   
      0.0957528826821   0.0958271475853   0.0958953078457   0.095956824451   0.0960112036733   
      0.0960580033263   0.0960968385354   0.0961273868844   0.0961493928166   0.0961626711786   
      0.0961671098198   0.0961626711786   0.0961493928166   0.0961273868844   0.0960968385354   
      0.0960580033263   0.0960112036733   0.095956824451   0.0958953078457   0.0958271475853   
      0.0957528826821   0.0956730908288   0.0955883815902   0.0954993895284   0.0954067673933   
      0.0953111794974   0.0952132953793   0.0951137838481   0.0950133074765   0.0949125175994   
      0.0948120498519   0.0947125202655   0.094614521926   0.0945186221804   0.0944253603716   
      0.0943352460646   0.094248757727   0.0941663418131   0.0940884122055   0.0940153499593   
      0.0939475032981   0.093885187811   0.0938286868017   0.0937782517439   0.0937341028016   
      0.0936964293764   0.0936653906479   0.0936411160801   0.0936237058672   0.0936132313013   
      0.109179705138   0.109185422354   0.109202550933   0.109231021572   0.109270718442   
      0.10932147871   0.109383091904   0.109455299139   0.109537792228   0.109630212749   
      0.109732151075   0.109843145469   0.109962681265   0.110090190241   0.110225050238   
      0.110366585118   0.110514065138   0.110666707837   0.110823679517   0.110984097395   
      0.111147032514   0.11131151347   0.111476531019   0.111641043584   0.111803983696   
      0.111964265357   0.112120792278   0.112272466954   0.112418200467   0.112556922905   
      0.112687594244   0.112809215528   0.112920840136   0.113021584934   0.113110641085   
      0.113187284275   0.113250884137   0.113300912658   0.113336951353   0.113358697049   
      0.113365966114   0.113358697049   0.113336951353   0.113300912658   0.113250884137   
      0.113187284275   0.113110641085   0.113021584934   0.112920840136   0.112809215528   
      0.112687594244   0.112556922905   0.112418200467   0.112272466954   0.112120792278   
      0.111964265357   0.111803983696   0.111641043584   0.111476531019   0.11131151347   
      0.111147032514   0.110984097395   0.110823679517   0.110666707837   0.110514065138   
      0.110366585118   0.110225050238   0.110090190241   0.109962681265   0.109843145469   
      0.109732151075   0.109630212749   0.109537792228   0.109455299139   0.109383091904   
      0.10932147871   0.109270718442   0.109231021572   0.109202550933   0.109185422354   
      0.122339475414   0.122347582683   0.122371871666   0.122412243754   0.12246853413   
      0.122540511092   0.122627875139   0.122730257856   0.122847220666   0.122978253484   
      0.123122773363   0.123280123209   0.123449570657   0.123630307212   0.123821447767   
      0.124022030605   0.124231018028   0.124447297712   0.12466968492   0.124896925691   
      0.125127701105   0.125360632703   0.125594289161   0.125827194224   0.126057835951   
      0.126284677229   0.126506167511   0.126720755685   0.126926903939   0.127123102442   
      0.127307884635   0.127479842898   0.127637644285   0.127780046075   0.12790591079   
      0.128014220387   0.128104089311   0.128174776108   0.128225693332   0.128256415517   
      0.128266685007   0.128256415517   0.128225693332   0.128174776108   0.128104089311   
      0.128014220387   0.12790591079   0.127780046075   0.127637644285   0.127479842898   
      0.127307884635   0.127123102442   0.126926903939   0.126720755685   0.126506167511   
      0.126284677229   0.126057835951   0.125827194224   0.125594289161   0.125360632703   
      0.125127701105   0.124896925691   0.12466968492   0.124447297712   0.124231018028   
      0.124022030605   0.123821447767   0.123630307212   0.123449570657   0.123280123209   
      0.123122773363   0.122978253484   0.122847220666   0.122730257856   0.122627875139   
      0.122540511092   0.12246853413   0.122412243754   0.122371871666   0.122347582683   
      0.134748529789   0.134759013732   0.134790422677   0.134842627794   0.134915413776   
      0.135008477975   0.135121429253   0.135253786583   0.135404977484   0.135574336352   
      0.135761102801   0.135964420115   0.136183333928   0.136416791277   0.136663640165   
      0.13692262979   0.137192411586   0.137471541245   0.137758481856   0.138051608312   
      0.13834921311   0.138649513642   0.13895066106   0.139250750763   0.139547834498   
      0.139839934056   0.140125056465   0.140401210557   0.140666424721   0.14091876562   
      0.141156357597   0.14137740246   0.141580199299   0.141763163969   0.141924847868   
      0.142063955613   0.142179361256   0.142270122677   0.142335493841   0.142374934633   
      0.142388118061   0.142374934633   0.142335493841   0.142270122677   0.142179361256   
      0.142063955613   0.141924847868   0.141763163969   0.141580199299   0.14137740246   
      0.141156357597   0.14091876562   0.140666424721   0.140401210557   0.140125056465   
      0.139839934056   0.139547834498   0.139250750763   0.13895066106   0.138649513642   
      0.13834921311   0.138051608312   0.137758481856   0.137471541245   0.137192411586   
      0.13692262979   0.136663640165   0.136416791277   0.136183333928   0.135964420115   
      0.135761102801   0.135574336352   0.135404977484   0.135253786583   0.135121429253   
      0.135008477975   0.134915413776   0.134842627794   0.134790422677   0.134759013732   
      0.14548434383   0.145496869184   0.14553439326   0.145596759895   0.145683708142   
      0.145794871286   0.145929775538   0.146087838455   0.146268367183   0.146470556617   
      0.14669348759   0.146936125237   0.147197317663   0.147475795098   0.147770169696   
      0.148078936156   0.148400473355   0.148733047166   0.14907481463   0.149423829644   
      0.1497780503   0.150135347976   0.150493518271   0.150850293797   0.151203358832   
      0.151550365763   0.151888953209   0.152216765649   0.15253147433   0.152830799183   
      0.153112531433   0.153374556518   0.15361487695   0.153831634696   0.15402313265   
      0.154187854779   0.154324484546   0.154431921211   0.154509293681   0.154555971609   
      0.154571573491   0.154555971609   0.154509293681   0.154431921211   0.154324484546   
      0.154187854779   0.15402313265   0.153831634696   0.15361487695   0.153374556518   
      0.153112531433   0.152830799183   0.15253147433   0.152216765649   0.151888953209   
      0.151550365763   0.151203358832   0.150850293797   0.150493518271   0.150135347976   
      0.1497780503   0.149423829644   0.14907481463   0.148733047166   0.148400473355   
      0.148078936156   0.147770169696   0.147475795098   0.147197317663   0.146936125237   
      0.14669348759   0.146470556617   0.146268367183   0.146087838455   0.145929775538   
      0.145794871286   0.145683708142   0.145596759895   0.14553439326   0.145496869184   
      0.153911258472   0.153925335226   0.15396750618   0.15403759318   0.154135298587   
      0.154260204232   0.154411770034   0.154589332344   0.154792102121   0.155019163041   
      0.155269469692   0.15554184598   0.155834983944   0.156147443133   0.156477650759   
      0.156823902806   0.157184366304   0.157557082951   0.157939974276   0.158330848495   
      0.158727409205   0.159127266014   0.159527947176   0.159926914251   0.160321578749   
      0.160709320671   0.161087508811   0.161453522601   0.161804775252   0.162138737864   
      0.162452964175   0.162745115528   0.163012985659   0.163254524852   0.163467863027   
      0.163651331335   0.163803481818   0.163923104776   0.164009243481   0.164061205939   
      0.164078573473   0.164061205939   0.164009243481   0.163923104776   0.163803481818   
      0.163651331335   0.163467863027   0.163254524852   0.163012985659   0.162745115528   
      0.162452964175   0.162138737864   0.161804775252   0.161453522601   0.161087508811   
      0.160709320671   0.160321578749   0.159926914251   0.159527947176   0.159127266014   
      0.158727409205   0.158330848495   0.157939974276   0.157557082951   0.157184366304   
      0.156823902806   0.156477650759   0.156147443133   0.155834983944   0.15554184598   
      0.155269469692   0.155019163041   0.154792102121   0.154589332344   0.154411770034   
      0.154260204232   0.154135298587   0.15403759318   0.15396750618   0.153925335226   
      0.159635630411   0.159650722569   0.159695934678   0.15977107341   0.159875815822   
      0.160009708293   0.160172165121   0.160362466863   0.160579758508   0.160823047622   
      0.161091202605   0.161382951222   0.161696879588   0.162031431805   0.16238491045   
      0.162755478128   0.163141160278   0.163539849463   0.163949311298   0.164367192194   
      0.164791029055   0.165218261013   0.165646243265   0.166072263004   0.166493557403   
      0.166907333531   0.167310790042   0.167701140401   0.168075637366   0.168431598397   
      0.168766431614   0.169077661895   0.169362956675   0.169620151015   0.169847271481   
      0.170042558405   0.170204486115   0.170331780752   0.170423435336   0.170478721802   
      0.170497199755   0.170478721802   0.170423435336   0.170331780752   0.170204486115   
      0.170042558405   0.169847271481   0.169620151015   0.169362956675   0.169077661895   
      0.168766431614   0.168431598397   0.168075637366   0.167701140401   0.167310790042   
      0.166907333531   0.166493557403   0.166072263004   0.165646243265   0.165218261013   
      0.164791029055   0.164367192194   0.163949311298   0.163539849463   0.163141160278   
      0.162755478128   0.16238491045   0.162031431805   0.161696879588   0.161382951222   
      0.161091202605   0.160823047622   0.160579758508   0.160362466863   0.160172165121   
      0.160009708293   0.159875815822   0.15977107341   0.159695934678   0.159650722569   
      0.162512852431   0.162528440795   0.162575138957   0.162652745888   0.162760925812   
      0.162899207138   0.163066981061   0.163263499911   0.163487875347   0.163739076541   
      0.164015928491   0.164317110638   0.164641155977   0.164986450851   0.165351235647   
      0.165733606601   0.166131518923   0.166542791445   0.166965112973   0.167396050512   
      0.167833059489   0.168273496064   0.168714631578   0.169153669136   0.169587762245   
      0.170014035405   0.17042960646   0.17083161047   0.171217224813   0.171583695167   
      0.171928362001   0.172248687137   0.172542279973   0.172806922899   0.173040595465   
      0.173241496885   0.173408066444   0.173539001458   0.17363327244   0.173690135204   
      0.173709139667   0.173690135204   0.17363327244   0.173539001458   0.173408066444   
      0.173241496885   0.173040595465   0.172806922899   0.172542279973   0.172248687137   
      0.171928362001   0.171583695167   0.171217224813   0.17083161047   0.17042960646   
      0.170014035405   0.169587762245   0.169153669136   0.168714631578   0.168273496064   
      0.167833059489   0.167396050512   0.166965112973   0.166542791445   0.166131518923   
      0.165733606601   0.165351235647   0.164986450851   0.164641155977   0.164317110638   
      0.164015928491   0.163739076541   0.163487875347   0.163263499911   0.163066981061   
      0.162899207138   0.162760925812   0.162652745888   0.162575138957   0.162528440795   
      0.162512852431   0.162528440795   0.162575138957   0.162652745888   0.162760925812   
      0.162899207138   0.163066981061   0.163263499911   0.163487875347   0.163739076541   
      0.164015928491   0.164317110638   0.164641155977   0.164986450851   0.165351235647   
      0.165733606601   0.166131518923   0.166542791445   0.166965112973   0.167396050512   
      0.167833059489   0.168273496064   0.168714631578   0.169153669136   0.169587762245   
      0.170014035405   0.17042960646   0.17083161047   0.171217224813   0.171583695167   
      0.171928362001   0.172248687137   0.172542279973   0.172806922899   0.173040595465   
      0.173241496885   0.173408066444   0.173539001458   0.17363327244   0.173690135204   
      0.173709139667   0.173690135204   0.17363327244   0.173539001458   0.173408066444   
      0.173241496885   0.173040595465   0.172806922899   0.172542279973   0.172248687137   
      0.171928362001   0.171583695167   0.171217224813   0.17083161047   0.17042960646   
      0.170014035405   0.169587762245   0.169153669136   0.168714631578   0.168273496064   
      0.167833059489   0.167396050512   0.166965112973   0.166542791445   0.166131518923   
      0.165733606601   0.165351235647   0.164986450851   0.164641155977   0.164317110638   
      0.164015928491   0.163739076541   0.163487875347   0.163263499911   0.163066981061   
      0.162899207138   0.162760925812   0.162652745888   0.162575138957   0.162528440795   
      0.159635630411   0.159650722569   0.159695934678   0.15977107341   0.159875815822   
      0.160009708293   0.160172165121   0.160362466863   0.160579758508   0.160823047622   
      0.161091202605   0.161382951222   0.161696879588   0.162031431805   0.16238491045   
      0.162755478128   0.163141160278   0.163539849463   0.163949311298   0.164367192194   
      0.164791029055   0.165218261013   0.165646243265   0.166072263004   0.166493557403   
      0.166907333531   0.167310790042   0.167701140401   0.168075637366   0.168431598397   
      0.168766431614   0.169077661895   0.169362956675   0.169620151015   0.169847271481   
      0.170042558405   0.170204486115   0.170331780752   0.170423435336   0.170478721802   
      0.170497199755   0.170478721802   0.170423435336   0.170331780752   0.170204486115   
      0.170042558405   0.169847271481   0.169620151015   0.169362956675   0.169077661895   
      0.168766431614   0.168431598397   0.168075637366   0.167701140401   0.167310790042   
      0.166907333531   0.166493557403   0.166072263004   0.165646243265   0.165218261013   
      0.164791029055   0.164367192194   0.163949311298   0.163539849463   0.163141160278   
      0.162755478128   0.16238491045   0.162031431805   0.161696879588   0.161382951222   
      0.161091202605   0.160823047622   0.160579758508   0.160362466863   0.160172165121   
      0.160009708293   0.159875815822   0.15977107341   0.159695934678   0.159650722569   
      0.153911258472   0.153925335226   0.15396750618   0.15403759318   0.154135298587   
      0.154260204232   0.154411770034   0.154589332344   0.154792102121   0.155019163041   
      0.155269469692   0.15554184598   0.155834983944   0.156147443133   0.156477650759   
      0.156823902806   0.157184366304   0.157557082951   0.157939974276   0.158330848495   
      0.158727409205   0.159127266014   0.159527947176   0.159926914251   0.160321578749   
      0.160709320671   0.161087508811   0.161453522601   0.161804775252   0.162138737864   
      0.162452964175   0.162745115528   0.163012985659   0.163254524852   0.163467863027   
      0.163651331335   0.163803481818   0.163923104776   0.164009243481   0.164061205939   
      0.164078573473   0.164061205939   0.164009243481   0.163923104776   0.163803481818   
      0.163651331335   0.163467863027   0.163254524852   0.163012985659   0.162745115528   
      0.162452964175   0.162138737864   0.161804775252   0.161453522601   0.161087508811   
      0.160709320671   0.160321578749   0.159926914251   0.159527947176   0.159127266014   
      0.158727409205   0.158330848495   0.157939974276   0.157557082951   0.157184366304   
      0.156823902806   0.156477650759   0.156147443133   0.155834983944   0.15554184598   
      0.155269469692   0.155019163041   0.154792102121   0.154589332344   0.154411770034   
      0.154260204232   0.154135298587   0.15403759318   0.15396750618   0.153925335226   
      0.14548434383   0.145496869184   0.14553439326   0.145596759895   0.145683708142   
      0.145794871286   0.145929775538   0.146087838455   0.146268367183   0.146470556617   
      0.14669348759   0.146936125237   0.147197317663   0.147475795098   0.147770169696   
      0.148078936156   0.148400473355   0.148733047166   0.14907481463   0.149423829644   
      0.1497780503   0.150135347976   0.150493518271   0.150850293797   0.151203358832   
      0.151550365763   0.151888953209   0.152216765649   0.15253147433   0.152830799183   
      0.153112531433   0.153374556518   0.15361487695   0.153831634696   0.15402313265   
      0.154187854779   0.154324484546   0.154431921211   0.154509293681   0.154555971609   
      0.154571573491   0.154555971609   0.154509293681   0.154431921211   0.154324484546   
      0.154187854779   0.15402313265   0.153831634696   0.15361487695   0.153374556518   
      0.153112531433   0.152830799183   0.15253147433   0.152216765649   0.151888953209   
      0.151550365763   0.151203358832   0.150850293797   0.150493518271   0.150135347976   
      0.1497780503   0.149423829644   0.14907481463   0.148733047166   0.148400473355   
      0.148078936156   0.147770169696   0.147475795098   0.147197317663   0.146936125237   
      0.14669348759   0.146470556617   0.146268367183   0.146087838455   0.145929775538   
      0.145794871286   0.145683708142   0.145596759895   0.14553439326   0.145496869184   
      0.134748529789   0.134759013732   0.134790422677   0.134842627794   0.134915413776   
      0.135008477975   0.135121429253   0.135253786583   0.135404977484   0.135574336352   
      0.135761102801   0.135964420115   0.136183333928   0.136416791277   0.136663640165   
      0.13692262979   0.137192411586   0.137471541245   0.137758481856   0.138051608312   
      0.13834921311   0.138649513642   0.13895066106   0.139250750763   0.139547834498   
      0.139839934056   0.140125056465   0.140401210557   0.140666424721   0.14091876562   
      0.141156357597   0.14137740246   0.141580199299   0.141763163969   0.141924847868   
      0.142063955613   0.142179361256   0.142270122677   0.142335493841   0.142374934633   
      0.142388118061   0.142374934633   0.142335493841   0.142270122677   0.142179361256   
      0.142063955613   0.141924847868   0.141763163969   0.141580199299   0.14137740246   
      0.141156357597   0.14091876562   0.140666424721   0.140401210557   0.140125056465   
      0.139839934056   0.139547834498   0.139250750763   0.13895066106   0.138649513642   
      0.13834921311   0.138051608312   0.137758481856   0.137471541245   0.137192411586   
      0.13692262979   0.136663640165   0.136416791277   0.136183333928   0.135964420115   
      0.135761102801   0.135574336352   0.135404977484   0.135253786583   0.135121429253   