<?xml version="1.0"?>
<VTKFile type="ImageData" version="0.1" byte_order="LittleEndian">
  <ImageData WholeExtent="0 79 0 19 0 19" Origin="0 0 0" Spacing="1 1 1">
  <Piece Extent="0 79 0 19 0 19">
    <PointData Scalars="density">
       <DataArray type="Float32" Name="reddensity" NumberOfComponents="1" format="ascii">
      0   0   0   0   0   
      0   0   0   0   0   
      0   0   0   0   0   
      0   0   0   0   0   
      0   0   0   0   0   
      0   0   0   0   0   
      0   0   0   0   0   
      0   0   0   0   0   
      0   0   0   0   0   
      0   0   0   0   0   
      0   0   0   0   0   
      0   0   0   0   0   
      0   0   0   0   0   
      0   0   0   0   0   
      0   0   0   0   0   
      0   0   0   0   0   
      0   0   0   0   0   
      0   0   0   0   0   
      0   0   0   0   0   
      0   0   0   0   0   
      0   0   0   0   0   
      0   0   0   0   0   
      0   0   0   0   0   
      0   0   0   0   0   
      0   0   0   0   0   
      0   0   0   0   0   
      0   0   0   0   0   
      0   0   0   0   0   
      0   0   0   0   0   
      0   0   0   0   0   
      0   0   0   0   0   
      0   0   0   0   0   
      0   0   0   0   0   
      0   0   0   0   0   
      0   0   0   0   0   
      0   0   0   0   0   
      0   0   0   0   0   
      0   0   0   0   0   
      0   0   0   0   0   
      0   0   0   0   0   
      0   0   0   0   0   
      0   0   0   0   0   
      0   0   0   0   0   
      0   0   0   0   0   
      0   0   0   0   0   
      0   0   0   0   0   
      0   0   0   0   0   
      0   0   0   0   0   
      0   0   0   0   0   
      0   0   0   0   0   
      0   0   0   0   0   
      0   0   0   0   0   
      0   0   0   0   0   
      0   0   0   0   0   
      0   0   0   0   0   
      0   0   0   0   0   
      0   0   0   0   0   
      0   0   0   0   0   
      0   0   0   0   0   
      0   0   0   0   0   
      0   0   0   0   0   
      0   0   0   0   0   
      0   0   0   0   0   
      0   0   0   0   0   
      0   0   0   0   0   
      0   0   0   0   0   
      0   0   0   0   0   
      0   0   0   0   0   
      0   0   0   0   0   
      0   0   0   0   0   
      0   0   0   0   0   
      0   0   0   0   0   
      0   0   0   0   0   
      0   0   0   0   0   
      0   0   0   0   0   
      0   0   0   0   0   
      0   0   0   0   0   
      0   0   0   0   0   
      0   0   0   0   0   
      0   0   0   0   0   
      0   0   0   0   0   
      0   0   0   0   0   
      0   0   0   0   0   
      0   0   0   0   0   
      0   0   0   0   0   
      0   0   0   0   0   
      0   0   0   0   0   
      0   0   0   0   0   
      0   0   0   0   0   
      0   0   0   0   0   
      0   0   0   0   0   
      0   0   0   0   0   
      0   0   0   0   0   
      0   0   0   0   0   
      0   0   0   0   0   
      0   0   0   0   0   
      0   0   0   0   0   
      0   0   0   0   0   
      0   0   0   0   0   
      0   0   0   0   0   
      0   0   0   0   0   
      0   0   0   0   0   
      0   0   0   0   0   
      0   0   0   0   0   
      0   0   0   0   0   
      0   0   0   0   0   
      0   0   0   0   0   
      0   0   0   0   0   
      0   0   0   0   0   
      0   0   0   0   0   
      0   0   0   0   0   
      0   0   0   0   0   
      0   0   0   0   0   
      0   0   0   0   0   
      0   0   0   0   0   
      0   0   0   0   0   
      0   0   0   0   0   
      0   0   0   0   0   
      0   0   0   0   0   
      0   0   0   0   0   
      0   0   0   0   0   
      0   0   0   0   0   
      0   0   0   0   0   
      0   0   0   0   0   
      0   0   0   0   0   
      0   0   0   0   0   
      0   0   0   0   0   
      0   0   0   0   0   
      0   0   0   0   0   
      0   0   0   0   0   
      0   0   0   0   0   
      0   0   0   0   0   
      0   0   0   0   0   
      0   0   0   0   0   
      0   0   0   0   0   
      0   0   0   0   0   
      0   0   0   0   0   
      0   0   0   0   0   
      0   0   0   0   0   
      0   0   0   0   0   
      0   0   0   0   0   
      0   0   0   0   0   
      0   0   0   0   0   
      0   0   0   0   0   
      0   0   0   0   0   
      0   0   0   0   0   
      0   0   0   0   0   
      0   0   0   0   0   
      0   0   0   0   0   
      0   0   0   0   0   
      0   0   0   0   0   
      0   0   0   0   0   
      0   0   0   0   0   
      0   0   0   0   0   
      0   0   0   0   0   
      0   0   0   0   0   
      0   0   0   0   0   
      0   0   0   0   0   
      0   0   0   0   0   
      0   0   0   0   0   
      0   0   0   0   0   
      0   0   0   0   0   
      0   0   0   0   0   
      0   0   0   0   0   
      0   0   0   0   0   
      0   0   0   0   0   
      0   0   0   0   0   
      0   0   0   0   0   
      0   0   0   0   0   
      0   0   0   0   0   
      0   0   0   0   0   
      0   0   0   0   0   
      0   0   0   0   0   
      0   0   0   0   0   
      0   0   0   0   0   
      0   0   0   0   0   
      0   0   0   0   0   
      0   0   0   0   0   
      0   0   0   0   0   
      0   0   0   0   0   
      0   0   0   0   0   
      0   0   0   0   0   
      0   0   0   0   0   
      0   0   0   0   0   
      0   0   0   0   0   
      0   0   0   0   0   
      0   0   0   0   0   
      0   0   0   0   0   
      0   0   0   0   0   
      0   0   0   0   0   
      0   0   0   0   0   
      0   0   0   0   0   
      0   0   0   0   0   
      0   0   0   0   0   
      0   0   0   0   0   
      0   0   0   0   0   
      0   0   0   0   0   
      0   0   0   0   0   
      0   0   0   0   0   
      0   0   0   0   0   
      0   0   0   0   0   
      0   0   0   0   0   
      0   0   0   0   0   
      0   0   0   0   0   
      0   0   0   0   0   
      0   0   0   0   0   
      0   0   0   0   0   
      0   0   0   0   0   
      0   0   0   0   0   
      0   0   0   0   0   
      0   0   0   0   0   
      0   0   0   0   0   
      0   0   0   0   0   
      0   0   0   0   0   
      0   0   0   0   0   
      0   0   0   0   0   
      0   0   0   0   0   
      0   0   0   0   0   
      0   0   0   0   0   
      0   0   0   0   0   
      0   0   0   0   0   
      0   0   0   0   0   
      0   0   0   0   0   
      0   0   0   0   0   
      0   0   0   0   0   
      0   0   0   0   0   
      0   0   0   0   0   
      0   0   0   0   0   
      0   0   0   0   0   
      0   0   0   0   0   
      0   0   0   0   0   
      0   0   0   0   0   
      0   0   0   0   0   
      0   0   0   0   0   
      0   0   0   0   0   
      0   0   0   0   0   
      0   0   0   0   0   
      0   0   0   0   0   
      0   0   0   0   0   
      0   0   0   0   0   
      0   0   0   0   0   
      0   0   0   0   0   
      0   0   0   0   0   
      0   0   0   0   0   
      0   0   0   0   0   
      0   0   0   0   0   
      0   0   0   0   0   
      0   0   0   0   0   
      0   0   0   0   0   
      0   0   0   0   0   
      0   0   0   0   0   
      0   0   0   0   0   
      0   0   0   0   0   
      0   0   0   0   0   
      0   0   0   0   0   
      0   0   0   0   0   
      0   0   0   0   0   
      0   0   0   0   0   
      0   0   0   0   0   
      0   0   0   0   0   
      0   0   0   0   0   
      0   0   0   0   0   
      0   0   0   0   0   
      0   0   0   0   0   
      0   0   0   0   0   
      0   0   0   0   0   
      0   0   0   0   0   
      0   0   0   0   0   
      0   0   0   0   0   
      0   0   0   0   0   
      0   0   0   0   0   
      0   0   0   0   0   
      0   0   0   0   0   
      0   0   0   0   0   
      0   0   0   0   0   
      0   0   0   0   0   
      0   0   0   0   0   
      0   0   0   0   0   
      0   0   0   0   0   
      0   0   0   0   0   
      0   0   0   0   0   
      0   0   0   0   0   
      0   0   0   0   0   
      0   0   0   0   0   
      0   0   0   0   0   
      0   0   0   0   0   
      0   0   0   0   0   
      0   0   0   0   0   
      0   0   0   0   0   
      0   0   0   0   0   
      0   0   0   0   0   
      0   0   0   0   0   
      0   0   0   0   0   
      0   0   0   0   0   
      0   0   0   0   0   
      0   0   0   0   0   
      0   0   0   0   0   
      0   0   0   0   0   
      0   0   0   0   0   
      0   0   0   0   0   
      0   0   0   0   0   
      0   0   0   0   0   
      0   0   0   0   0   
      0   0   0   0   0   
      0   0   0   0   0   
      0   0   0   0   0   
      0   0   0   0   0   
      0   0   0   0   0   
      0   0   0   0   0   
      0   0   0   0   0   
      0   0   0   0   0   
      0   0   0   0   0   
      0   0   0   0   0   
      0   0   0   0   0   
      0   0   0   0   0   
      0   0   0   0   0   
      0   0   0   0   0   
      0   0   0   0   0   
      0   0   0   0   0   
      0   0   0   0   0   
      0   0   0   0   0   
      0   0   0   0   0   
      0   0   0   0   0   
      0   0   0   0   0   
      0   0   0   0   0   
      0   0   0   0   0   
      0   0   0   0   0   
      0   0   0   0   0   
      0   0   0   0   0   
      0   0   0   0   0   
      0   0   0   0   0   
      0   0   0   0   0   
      0   0   0   0   0   
      0   0   0   0   0   
      0   0   0   0   0   
      0   0   0   0   0   
      0.0829516391861   0.0829580155664   0.0829771418989   0.0830090094379   0.0830536025292   
      0.0831108969689   0.0831808576555   0.0832634354899   0.0833585634668   0.0834661518974   
      0.0835860827011   0.0837182027108   0.0838623159528   0.0840181748824   0.0841854705985   
      0.0843638221061   0.0845527647616   0.0847517381134   0.0849600734416   0.0851769813983   
      0.0854015402587   0.0856326853899   0.0858692006395   0.0861097124117   0.0863526872357   
      0.0865964336237   0.0868391089539   0.0870787319943   0.0873132015001   0.0875403210755   
      0.0877578301983   0.0879634409741   0.0881548798425   0.0883299331134   0.0884864949032   
      0.0886226157893   0.088736550325   0.0888268014843   0.0888921601413   0.0889317378358   
      0.0889449913326   0.0889317378358   0.0888921601413   0.0888268014843   0.088736550325   
      0.0886226157893   0.0884864949032   0.0883299331134   0.0881548798425   0.0879634409741   
      0.0877578301983   0.0875403210755   0.0873132015001   0.0870787319943   0.0868391089539   
      0.0865964336237   0.0863526872357   0.0861097124117   0.0858692006395   0.0856326853899   
      0.0854015402587   0.0851769813983   0.0849600734416   0.0847517381134   0.0845527647616   
      0.0843638221061   0.0841854705985   0.0840181748824   0.0838623159528   0.0837182027108   
      0.0835860827011   0.0834661518974   0.0833585634668   0.0832634354899   0.0831808576555   
      0.0831108969689   0.0830536025292   0.0830090094379   0.0829771418989   0.0829580155664   
      0.0912005585715   0.0912096578781   0.0912369532633   0.091282436638   0.0913460928946   
      0.0914278974302   0.0915278126068   0.0916457830805   0.0917817299159   0.0919355434002   
      0.0921070744641   0.0922961246344   0.0925024344589   0.0927256703874   0.0929654101438   
      0.0932211267027   0.0934921710773   0.0937777542419   0.0940769286488   0.0943885699418   
      0.0947113596267   0.0950437696014   0.0953840495794   0.0957302185371   0.0960800613546   
      0.0964311318054   0.0967807629455   0.0971260857693   0.0974640567205   0.0977914942876   
      0.0981051244846   0.098401634534   0.0986777335801   0.0989302187702   0.0991560446188   
      0.0993523932183   0.0995167426397   0.0996469307726   0.0997412119263   0.0997983037316   
      0.0998174222546   0.0997983037316   0.0997412119263   0.0996469307726   0.0995167426397   
      0.0993523932183   0.0991560446188   0.0989302187702   0.0986777335801   0.098401634534   
      0.0981051244846   0.0977914942876   0.0974640567204   0.0971260857693   0.0967807629455   
      0.0964311318054   0.0960800613546   0.0957302185371   0.0953840495794   0.0950437696014   
      0.0947113596267   0.0943885699418   0.0940769286488   0.0937777542419   0.0934921710773   
      0.0932211267027   0.0929654101438   0.0927256703874   0.0925024344589   0.0922961246344   
      0.0921070744641   0.0919355434002   0.0917817299159   0.0916457830805   0.0915278126068   
      0.0914278974302   0.0913460928946   0.091282436638   0.0912369532633   0.0912096578781   
      0.105224058647   0.105238853062   0.105283234514   0.105357196773   0.105460726626   
      0.105593799575   0.105756373674   0.105948381427   0.106169719576   0.106420236656   
      0.10669971816   0.107007869209   0.107344294623   0.10770847641   0.108099748733   
      0.10851727061   0.108959996704   0.109426646815   0.109915674879   0.110425238547   
      0.110953170652   0.111496954105   0.112053701977   0.112620144631   0.113192625814   
      0.113767109542   0.114339199416   0.114904171616   0.115457022369   0.115992530037   
      0.116505331272   0.116990009921   0.117441196578   0.117853675985   0.118222498835   
      0.118543094119   0.118811377825   0.119023853805   0.119177702737   0.119270855551   
      0.119302048208   0.119270855551   0.119177702737   0.119023853805   0.118811377825   
      0.118543094119   0.118222498835   0.117853675985   0.117441196578   0.116990009921   
      0.116505331272   0.115992530037   0.115457022369   0.114904171616   0.114339199416   
      0.113767109542   0.113192625814   0.112620144631   0.112053701977   0.111496954105   
      0.110953170652   0.110425238547   0.109915674879   0.109426646815   0.108959996704   
      0.10851727061   0.108099748733   0.10770847641   0.107344294623   0.107007869209   
      0.10669971816   0.106420236656   0.106169719576   0.105948381427   0.105756373674   
      0.105593799575   0.105460726626   0.105357196773   0.105283234514   0.105238853062   
      0.116703354772   0.116724310884   0.11678717785   0.11689195029   0.117038614966   
      0.117227144287   0.117457487043   0.117729556206   0.118043213609   0.118398251312   
      0.118794369464   0.119231150515   0.119708029713   0.120224261924   0.120778884968   
      0.121370679902   0.121998128892   0.122659371658   0.123352161771   0.124073824472   
      0.124821217962   0.125590700484   0.126378105668   0.127178728773   0.127987326388   
      0.128798131957   0.129604889081   0.130400903931   0.131179117366   0.131932196421   
      0.132652643842   0.133332923364   0.133965597467   0.134543473559   0.135059753892   
      0.13550818412   0.135883195294   0.136180034161   0.136394877031   0.136524923004   
      0.136568463139   0.136524923004   0.136394877031   0.136180034161   0.135883195294   
      0.13550818412   0.135059753892   0.134543473559   0.133965597467   0.133332923364   
      0.132652643842   0.131932196421   0.131179117366   0.130400903931   0.129604889081   
      0.128798131957   0.127987326388   0.127178728773   0.126378105668   0.125590700484   
      0.124821217962   0.124073824472   0.123352161771   0.122659371658   0.121998128892   
      0.121370679902   0.120778884968   0.120224261924   0.119708029713   0.119231150515   
      0.118794369464   0.118398251312   0.118043213609   0.117729556206   0.117457487043   
      0.117227144287   0.117038614966   0.11689195029   0.11678717785   0.116724310884   
      0.127422381533   0.127449539345   0.127531010653   0.127666787316   0.127856849884   
      0.12810115867   0.128399641016   0.128752174579   0.12915856638   0.129618527416   
      0.130131642608   0.130697335961   0.131314830925   0.131983106113   0.132700846766   
      0.133466392659   0.134277683493   0.135132203227   0.136026925246   0.136958260666   
      0.13792201252   0.138913338848   0.139926727903   0.140955988717   0.141994260014   
      0.143034040053   0.144067239253   0.145085256564   0.146079079459   0.147039406233   
      0.147956788143   0.148821787775   0.149625149132   0.150357974226   0.151011900545   
      0.151579273657   0.152053309374   0.152428240301   0.152699442207   0.152863536357   
      0.152918464791   0.152863536357   0.152699442207   0.152428240301   0.152053309374   
      0.151579273657   0.151011900545   0.150357974226   0.149625149132   0.148821787775   
      0.147956788143   0.147039406233   0.146079079459   0.145085256564   0.144067239253   
      0.143034040053   0.141994260014   0.140955988717   0.139926727903   0.138913338848   
      0.13792201252   0.136958260666   0.136026925246   0.135132203227   0.134277683493   
      0.133466392659   0.132700846766   0.131983106113   0.131314830925   0.130697335961   
      0.130131642608   0.129618527416   0.12915856638   0.128752174579   0.128399641016   
      0.12810115867   0.127856849884   0.127666787316   0.127531010653   0.127449539345   
      0.136684811555   0.136717400443   0.136815162551   0.136978081977   0.137206124761   
      0.137499227558   0.137857281537   0.138280111276   0.1387674484   0.139318899741   
      0.139933909831   0.140611717647   0.14135130772   0.142151355936   0.143010170681   
      0.14392563038   0.144895118922   0.145915460962   0.146982859619   0.14809283956   
      0.149240198857   0.150418973303   0.15162241691   0.152843002136   0.154072442953   
      0.155301743087   0.156521270753   0.157720859997   0.158889937381   0.160017671432   
      0.161093140984   0.162105517547   0.163044256088   0.163899288233   0.164661211897   
      0.165321471629   0.165872524558   0.166307987517   0.166622761801   0.166813132768   
      0.166876842297   0.166813132768   0.166622761801   0.166307987517   0.165872524558   
      0.165321471629   0.164661211897   0.163899288233   0.163044256088   0.162105517547   
      0.161093140984   0.160017671432   0.158889937381   0.157720859997   0.156521270753   
      0.155301743087   0.154072442953   0.152843002136   0.15162241691   0.150418973303   
      0.149240198857   0.14809283956   0.146982859619   0.145915460962   0.144895118922   
      0.14392563038   0.143010170681   0.142151355936   0.14135130772   0.140611717647   
      0.139933909831   0.139318899741   0.1387674484   0.138280111276   0.137857281537   
      0.137499227558   0.137206124761   0.136978081977   0.136815162551   0.136717400443   
      0.143973659565   0.144010471717   0.14412090011   0.144304917909   0.144562471557   
      0.144893467381   0.14529775258   0.145775090355   0.146325128952   0.146947364387   
      0.147641096745   0.14840538004   0.149238965907   0.150140241649   0.151107163586   
      0.15213718711   0.153227195381   0.15437342917   0.155571420909   0.156815936518   
      0.158100928919   0.159419507347   0.160763926463   0.162125598872   0.163495133932   
      0.164862404675   0.166216643377   0.167546564802   0.168840514665   0.170086639398   
      0.171273072155   0.172388129119   0.173420509775   0.174359494836   0.175195135906   
      0.175918431721   0.176521486727   0.176997648781   0.177341623706   0.177549565286   
      0.17761913988   0.177549565286   0.177341623706   0.176997648781   0.176521486727   
      0.175918431721   0.175195135906   0.174359494836   0.173420509775   0.172388129119   
      0.171273072155   0.170086639398   0.168840514665   0.167546564802   0.166216643377   
      0.164862404675   0.163495133932   0.162125598872   0.160763926463   0.159419507347   
      0.158100928919   0.156815936518   0.155571420909   0.15437342917   0.153227195381   
      0.15213718711   0.151107163586   0.150140241649   0.149238965907   0.14840538004   
      0.147641096745   0.146947364387   0.146325128952   0.145775090355   0.14529775258   
      0.144893467381   0.144562471557   0.144304917909   0.14412090011   0.144010471717   
      0.148941609803   0.148981249341   0.149100156483   0.149298293869   0.149575589388   
      0.149931921276   0.150367096971   0.150880825528   0.151472683337   0.152142072987   
      0.152888175187   0.153709893851   0.154605794735   0.155574038338   0.156612308254   
      0.157717736669   0.158886829293   0.160115392627   0.161398467016   0.162730269458   
      0.164104150424   0.165512569023   0.166947090602   0.168398410297   0.169856405071   
      0.171310215529   0.172748357266   0.174158859878   0.175529430148   0.176847634512   
      0.178101094861   0.179277691061   0.180365763508   0.181354309328   0.182233166662   
      0.182993182492   0.183626360669   0.18412598802   0.184486737383   0.184704747287   
      0.18477767842   0.184704747287   0.184486737383   0.18412598802   0.183626360669   
      0.182993182492   0.182233166662   0.181354309328   0.180365763508   0.179277691061   
      0.178101094861   0.176847634512   0.175529430148   0.174158859878   0.172748357266   
      0.171310215529   0.169856405071   0.168398410297   0.166947090602   0.165512569023   
      0.164104150424   0.162730269458   0.161398467016   0.160115392627   0.158886829293   
      0.157717736669   0.156612308254   0.155574038338   0.154605794735   0.153709893851   
      0.152888175187   0.152142072987   0.151472683337   0.150880825528   0.150367096971   
      0.149931921276   0.149575589388   0.149298293869   0.149100156483   0.148981249341   
      0.151445019997   0.151486064616   0.151609184919   0.15181433714   0.152101437963   
      0.152470348815   0.152920853612   0.153452629741   0.15406521206   0.154757949752   
      0.155529956007   0.156380050686   0.157306696422   0.158307929006   0.159381283343   
      0.160523716883   0.161731532965   0.163000307205   0.164324820599   0.165699003479   
      0.16711589476   0.168567620894   0.17004539863   0.171539564985   0.173039636746   
      0.174534400435   0.176012032045   0.177460244154   0.178866456366   0.18021798367   
      0.18150223632   0.182706924312   0.183820259633   0.184831149957   0.185729378455   
      0.186505765598   0.187152310157   0.187662307877   0.188030447344   0.188252883342   
      0.188327288405   0.188252883342   0.188030447344   0.187662307877   0.187152310157   
      0.186505765598   0.185729378455   0.184831149957   0.183820259633   0.182706924312   
      0.18150223632   0.18021798367   0.178866456366   0.177460244154   0.176012032045   
      0.174534400435   0.173039636746   0.171539564985   0.17004539863   0.168567620894   
      0.16711589476   0.165699003479   0.164324820599   0.163000307205   0.161731532965   
      0.160523716883   0.159381283343   0.158307929006   0.157306696422   0.156380050686   
      0.155529956007   0.154757949752   0.15406521206   0.153452629741   0.152920853612   
      0.152470348815   0.152101437963   0.15181433714   0.151609184919   0.151486064616   
      0.151445019997   0.151486064616   0.151609184919   0.15181433714   0.152101437963   
      0.152470348815   0.152920853612   0.153452629741   0.15406521206   0.154757949752   
      0.155529956007   0.156380050686   0.157306696422   0.158307929006   0.159381283343   
      0.160523716883   0.161731532965   0.163000307205   0.164324820599   0.165699003479   
      0.16711589476   0.168567620894   0.17004539863   0.171539564985   0.173039636746   
      0.174534400435   0.176012032045   0.177460244154   0.178866456366   0.18021798367   
      0.18150223632   0.182706924312   0.183820259633   0.184831149957   0.185729378455   
      0.186505765598   0.187152310157   0.187662307877   0.188030447344   0.188252883342   
      0.188327288405   0.188252883342   0.188030447344   0.187662307877   0.187152310157   
      0.186505765598   0.185729378455   0.184831149957   0.183820259633   0.182706924312   
      0.18150223632   0.18021798367   0.178866456366   0.177460244154   0.176012032045   
      0.174534400435   0.173039636746   0.171539564985   0.17004539863   0.168567620894   
      0.16711589476   0.165699003479   0.164324820599   0.163000307205   0.161731532965   
      0.160523716883   0.159381283343   0.158307929006   0.157306696422   0.156380050686   
      0.155529956007   0.154757949752   0.15406521206   0.153452629741   0.152920853612   
      0.152470348815   0.152101437963   0.15181433714   0.151609184919   0.151486064616   
      0.148941609803   0.148981249341   0.149100156483   0.149298293869   0.149575589388   
      0.149931921276   0.150367096971   0.150880825528   0.151472683337   0.152142072987   
      0.152888175187   0.153709893851   0.154605794735   0.155574038338   0.156612308254   
      0.157717736669   0.158886829293   0.160115392627   0.161398467016   0.162730269458   
      0.164104150424   0.165512569023   0.166947090602   0.168398410297   0.169856405071   
      0.171310215529   0.172748357266   0.174158859878   0.175529430148   0.176847634512   
      0.178101094861   0.179277691061   0.180365763508   0.181354309328   0.182233166662   
      0.182993182492   0.183626360669   0.18412598802   0.184486737383   0.184704747287   
      0.18477767842   0.184704747287   0.184486737383   0.18412598802   0.183626360669   
      0.182993182492   0.182233166662   0.181354309328   0.180365763508   0.179277691061   
      0.178101094861   0.176847634512   0.175529430148   0.174158859878   0.172748357266   
      0.171310215529   0.169856405071   0.168398410297   0.166947090602   0.165512569023   
      0.164104150424   0.162730269458   0.161398467016   0.160115392627   0.158886829293   
      0.157717736669   0.156612308254   0.155574038338   0.154605794735   0.153709893851   
      0.152888175187   0.152142072987   0.151472683337   0.150880825528   0.150367096971   
      0.149931921276   0.149575589388   0.149298293869   0.149100156483   0.148981249341   
      0.143973659565   0.144010471717   0.14412090011   0.144304917909   0.144562471557   
      0.144893467381   0.14529775258   0.145775090355   0.146325128952   0.146947364387   
      0.147641096745   0.14840538004   0.149238965907   0.150140241649   0.151107163586   
      0.15213718711   0.153227195381   0.15437342917   0.155571420909   0.156815936518   
      0.158100928919   0.159419507347   0.160763926463   0.162125598872   0.163495133932   
      0.164862404675   0.166216643377   0.167546564802   0.168840514665   0.170086639398   
      0.171273072155   0.172388129119   0.173420509775   0.174359494836   0.175195135906   
      0.175918431721   0.176521486727   0.176997648781   0.177341623706   0.177549565286   
      0.17761913988   0.177549565286   0.177341623706   0.176997648781   0.176521486727   
      0.175918431721   0.175195135906   0.174359494836   0.173420509775   0.172388129119   
      0.171273072155   0.170086639398   0.168840514665   0.167546564802   0.166216643377   
      0.164862404675   0.163495133932   0.162125598872   0.160763926463   0.159419507347   
      0.158100928919   0.156815936518   0.155571420909   0.15437342917   0.153227195381   
      0.15213718711   0.151107163586   0.150140241649   0.149238965907   0.14840538004   
      0.147641096745   0.146947364387   0.146325128952   0.145775090355   0.14529775258   
      0.144893467381   0.144562471557   0.144304917909   0.14412090011   0.144010471717   
      0.136684811555   0.136717400443   0.136815162551   0.136978081977   0.137206124761   
      0.137499227558   0.137857281537   0.138280111276   0.1387674484   0.139318899741   
      0.139933909831   0.140611717647   0.14135130772   0.142151355936   0.143010170681   
      0.14392563038   0.144895118922   0.145915460962   0.146982859619   0.14809283956   
      0.149240198857   0.150418973303   0.15162241691   0.152843002136   0.154072442953   
      0.155301743087   0.156521270753   0.157720859997   0.158889937381   0.160017671432   
      0.161093140984   0.162105517547   0.163044256088   0.163899288233   0.164661211897   
      0.165321471629   0.165872524558   0.166307987517   0.166622761801   0.166813132768   
      0.166876842297   0.166813132768   0.166622761801   0.166307987517   0.165872524558   
      0.165321471629   0.164661211897   0.163899288233   0.163044256088   0.162105517547   
      0.161093140984   0.160017671432   0.158889937381   0.157720859997   0.156521270753   
      0.155301743087   0.154072442953   0.152843002136   0.15162241691   0.150418973303   
      0.149240198857   0.14809283956   0.146982859619   0.145915460962   0.144895118922   
      0.14392563038   0.143010170681   0.142151355936   0.14135130772   0.140611717647   
      0.139933909831   0.139318899741   0.1387674484   0.138280111276   0.137857281537   
      0.137499227558   0.137206124761   0.136978081977   0.136815162551   0.136717400443   
      0.127422381533   0.127449539345   0.127531010653   0.127666787316   0.127856849884   
      0.12810115867   0.128399641016   0.128752174579   0.12915856638   0.129618527416   
      0.130131642608   0.130697335961   0.131314830925   0.131983106113   0.132700846766   
      0.133466392659   0.134277683493   0.135132203227   0.136026925246   0.136958260666   
      0.13792201252   0.138913338848   0.139926727903   0.140955988717   0.141994260014   
      0.143034040053   0.144067239253   0.145085256564   0.146079079459   0.147039406233   
      0.147956788143   0.148821787775   0.149625149132   0.150357974226   0.151011900545   
      0.151579273657   0.152053309374   0.152428240301   0.152699442207   0.152863536357   
      0.152918464791   0.152863536357   0.152699442207   0.152428240301   0.152053309374   
      0.151579273657   0.151011900545   0.150357974226   0.149625149132   0.148821787775   
      0.147956788143   0.147039406233   0.146079079459   0.145085256564   0.144067239253   
      0.143034040053   0.141994260014   0.140955988717   0.139926727903   0.138913338848   
      0.13792201252   0.136958260666   0.136026925246   0.135132203227   0.134277683493   
      0.133466392659   0.132700846766   0.131983106113   0.131314830925   0.130697335961   
      0.130131642608   0.129618527416   0.12915856638   0.128752174579   0.128399641016   