<?xml version="1.0"?>
<VTKFile type="ImageData" version="0.1" byte_order="LittleEndian">
  <ImageData WholeExtent="0 79 0 19 0 19" Origin="0 0 0" Spacing="1 1 1">
  <Piece Extent="0 79 0 19 0 19">
    <PointData Scalars="density">
       <DataArray type="Float32" Name="reddensity" NumberOfComponents="1" format="ascii">
      0   0   0   0   0   
      0   0   0   0   0   
      0   0   0   0   0   
      0   0   0   0   0   
      0   0   0   0   0   
      0   0   0   0   0   
      0   0   0   0   0   
      0   0   0   0   0   
      0   0   0   0   0   
      0   0   0   0   0   
      0   0   0   0   0   
      0   0   0   0   0   
      0   0   0   0   0   
      0   0   0   0   0   
      0   0   0   0   0   
      0   0   0   0   0   
      0   0   0   0   0   
      0   0   0   0   0   
      0   0   0   0   0   
      0   0   0   0   0   
      0   0   0   0   0   
      0   0   0   0   0   
      0   0   0   0   0   
      0   0   0   0   0   
      0   0   0   0   0   
      0   0   0   0   0   
      0   0   0   0   0   
      0   0   0   0   0   
      0   0   0   0   0   
      0   0   0   0   0   
      0   0   0   0   0   
      0   0   0   0   0   
      0   0   0   0   0   
      0   0   0   0   0   
      0   0   0   0   0   
      0   0   0   0   0   
      0   0   0   0   0   
      0   0   0   0   0   
      0   0   0   0   0   
      0   0   0   0   0   
      0   0   0   0   0   
      0   0   0   0   0   
      0   0   0   0   0   
      0   0   0   0   0   
      0   0   0   0   0   
      0   0   0   0   0   
      0   0   0   0   0   
      0   0   0   0   0   
      0   0   0   0   0   
      0   0   0   0   0   
      0   0   0   0   0   
      0   0   0   0   0   
      0   0   0   0   0   
      0   0   0   0   0   
      0   0   0   0   0   
      0   0   0   0   0   
      0   0   0   0   0   
      0   0   0   0   0   
      0   0   0   0   0   
      0   0   0   0   0   
      0   0   0   0   0   
      0   0   0   0   0   
      0   0   0   0   0   
      0   0   0   0   0   
      0   0   0   0   0   
      0   0   0   0   0   
      0   0   0   0   0   
      0   0   0   0   0   
      0   0   0   0   0   
      0   0   0   0   0   
      0   0   0   0   0   
      0   0   0   0   0   
      0   0   0   0   0   
      0   0   0   0   0   
      0   0   0   0   0   
      0   0   0   0   0   
      0   0   0   0   0   
      0   0   0   0   0   
      0   0   0   0   0   
      0   0   0   0   0   
      0   0   0   0   0   
      0   0   0   0   0   
      0   0   0   0   0   
      0   0   0   0   0   
      0   0   0   0   0   
      0   0   0   0   0   
      0   0   0   0   0   
      0   0   0   0   0   
      0   0   0   0   0   
      0   0   0   0   0   
      0   0   0   0   0   
      0   0   0   0   0   
      0   0   0   0   0   
      0   0   0   0   0   
      0   0   0   0   0   
      0   0   0   0   0   
      0   0   0   0   0   
      0   0   0   0   0   
      0   0   0   0   0   
      0   0   0   0   0   
      0   0   0   0   0   
      0   0   0   0   0   
      0   0   0   0   0   
      0   0   0   0   0   
      0   0   0   0   0   
      0   0   0   0   0   
      0   0   0   0   0   
      0   0   0   0   0   
      0   0   0   0   0   
      0   0   0   0   0   
      0   0   0   0   0   
      0   0   0   0   0   
      0   0   0   0   0   
      0   0   0   0   0   
      0   0   0   0   0   
      0   0   0   0   0   
      0   0   0   0   0   
      0   0   0   0   0   
      0   0   0   0   0   
      0   0   0   0   0   
      0   0   0   0   0   
      0   0   0   0   0   
      0   0   0   0   0   
      0   0   0   0   0   
      0   0   0   0   0   
      0   0   0   0   0   
      0   0   0   0   0   
      0   0   0   0   0   
      0   0   0   0   0   
      0   0   0   0   0   
      0   0   0   0   0   
      0   0   0   0   0   
      0   0   0   0   0   
      0   0   0   0   0   
      0   0   0   0   0   
      0   0   0   0   0   
      0   0   0   0   0   
      0   0   0   0   0   
      0   0   0   0   0   
      0   0   0   0   0   
      0   0   0   0   0   
      0   0   0   0   0   
      0   0   0   0   0   
      0   0   0   0   0   
      0   0   0   0   0   
      0   0   0   0   0   
      0   0   0   0   0   
      0   0   0   0   0   
      0   0   0   0   0   
      0   0   0   0   0   
      0   0   0   0   0   
      0   0   0   0   0   
      0   0   0   0   0   
      0   0   0   0   0   
      0   0   0   0   0   
      0   0   0   0   0   
      0   0   0   0   0   
      0   0   0   0   0   
      0   0   0   0   0   
      0   0   0   0   0   
      0   0   0   0   0   
      0   0   0   0   0   
      0   0   0   0   0   
      0   0   0   0   0   
      0   0   0   0   0   
      0   0   0   0   0   
      0   0   0   0   0   
      0   0   0   0   0   
      0   0   0   0   0   
      0   0   0   0   0   
      0   0   0   0   0   
      0   0   0   0   0   
      0   0   0   0   0   
      0   0   0   0   0   
      0   0   0   0   0   
      0   0   0   0   0   
      0   0   0   0   0   
      0   0   0   0   0   
      0   0   0   0   0   
      0   0   0   0   0   
      0   0   0   0   0   
      0   0   0   0   0   
      0   0   0   0   0   
      0   0   0   0   0   
      0   0   0   0   0   
      0   0   0   0   0   
      0   0   0   0   0   
      0   0   0   0   0   
      0   0   0   0   0   
      0   0   0   0   0   
      0   0   0   0   0   
      0   0   0   0   0   
      0   0   0   0   0   
      0   0   0   0   0   
      0   0   0   0   0   
      0   0   0   0   0   
      0   0   0   0   0   
      0   0   0   0   0   
      0   0   0   0   0   
      0   0   0   0   0   
      0   0   0   0   0   
      0   0   0   0   0   
      0   0   0   0   0   
      0   0   0   0   0   
      0   0   0   0   0   
      0   0   0   0   0   
      0   0   0   0   0   
      0   0   0   0   0   
      0   0   0   0   0   
      0   0   0   0   0   
      0   0   0   0   0   
      0   0   0   0   0   
      0   0   0   0   0   
      0   0   0   0   0   
      0   0   0   0   0   
      0   0   0   0   0   
      0   0   0   0   0   
      0   0   0   0   0   
      0   0   0   0   0   
      0   0   0   0   0   
      0   0   0   0   0   
      0   0   0   0   0   
      0   0   0   0   0   
      0   0   0   0   0   
      0   0   0   0   0   
      0   0   0   0   0   
      0   0   0   0   0   
      0   0   0   0   0   
      0   0   0   0   0   
      0   0   0   0   0   
      0   0   0   0   0   
      0   0   0   0   0   
      0   0   0   0   0   
      0   0   0   0   0   
      0   0   0   0   0   
      0   0   0   0   0   
      0   0   0   0   0   
      0   0   0   0   0   
      0   0   0   0   0   
      0   0   0   0   0   
      0   0   0   0   0   
      0   0   0   0   0   
      0   0   0   0   0   
      0   0   0   0   0   
      0   0   0   0   0   
      0   0   0   0   0   
      0   0   0   0   0   
      0   0   0   0   0   
      0   0   0   0   0   
      0   0   0   0   0   
      0   0   0   0   0   
      0   0   0   0   0   
      0   0   0   0   0   
      0   0   0   0   0   
      0   0   0   0   0   
      0   0   0   0   0   
      0   0   0   0   0   
      0   0   0   0   0   
      0   0   0   0   0   
      0   0   0   0   0   
      0   0   0   0   0   
      0   0   0   0   0   
      0   0   0   0   0   
      0   0   0   0   0   
      0   0   0   0   0   
      0   0   0   0   0   
      0   0   0   0   0   
      0   0   0   0   0   
      0   0   0   0   0   
      0   0   0   0   0   
      0   0   0   0   0   
      0   0   0   0   0   
      0   0   0   0   0   
      0   0   0   0   0   
      0   0   0   0   0   
      0   0   0   0   0   
      0   0   0   0   0   
      0   0   0   0   0   
      0   0   0   0   0   
      0   0   0   0   0   
      0   0   0   0   0   
      0   0   0   0   0   
      0   0   0   0   0   
      0   0   0   0   0   
      0   0   0   0   0   
      0   0   0   0   0   
      0   0   0   0   0   
      0   0   0   0   0   
      0   0   0   0   0   
      0   0   0   0   0   
      0   0   0   0   0   
      0   0   0   0   0   
      0   0   0   0   0   
      0   0   0   0   0   
      0   0   0   0   0   
      0   0   0   0   0   
      0   0   0   0   0   
      0   0   0   0   0   
      0   0   0   0   0   
      0   0   0   0   0   
      0   0   0   0   0   
      0   0   0   0   0   
      0   0   0   0   0   
      0   0   0   0   0   
      0   0   0   0   0   
      0   0   0   0   0   
      0   0   0   0   0   
      0   0   0   0   0   
      0   0   0   0   0   
      0   0   0   0   0   
      0   0   0   0   0   
      0   0   0   0   0   
      0   0   0   0   0   
      0   0   0   0   0   
      0   0   0   0   0   
      0   0   0   0   0   
      0   0   0   0   0   
      0   0   0   0   0   
      0   0   0   0   0   
      0   0   0   0   0   
      0   0   0   0   0   
      0   0   0   0   0   
      0   0   0   0   0   
      0   0   0   0   0   
      0   0   0   0   0   
      0   0   0   0   0   
      0   0   0   0   0   
      0   0   0   0   0   
      0   0   0   0   0   
      0   0   0   0   0   
      0   0   0   0   0   
      0   0   0   0   0   
      0   0   0   0   0   
      0   0   0   0   0   
      0   0   0   0   0   
      0   0   0   0   0   
      0.0840816144919   0.0840854429445   0.0840969174568   0.0841160053519   0.0841426517018   
      0.0841767786327   0.0842182843625   0.0842670419828   0.0843228980009   0.0843856706632   
      0.0844551480888   0.0845310862496   0.0846132068413   0.0847011951014   0.0847946976401   
      0.0848933203622   0.0849966265699   0.0851041353471   0.0852153203372   0.0853296090337   
      0.0854463827069   0.0855649770946   0.0856846839768   0.0858047537473   0.0859243990788   
      0.086042799753   0.0861591086995   0.0862724592498   0.0863819735683   0.0864867721783   
      0.0865859844513   0.0866787598751   0.0867642798757   0.0868417699204   0.0869105116002   
      0.0869698543645   0.0870192265718   0.0870581455236   0.087086226167   0.0871031881846   
      0.0871088612376   0.0871031881846   0.087086226167   0.0870581455236   0.0870192265718   
      0.0869698543645   0.0869105116002   0.0868417699204   0.0867642798757   0.0866787598751   
      0.0865859844513   0.0864867721783   0.0863819735683   0.0862724592498   0.0861591086995   
      0.086042799753   0.0859243990788   0.0858047537473   0.0856846839768   0.0855649770946   
      0.0854463827069   0.0853296090337   0.0852153203372   0.0851041353471   0.0849966265699   
      0.0848933203622   0.0847946976401   0.0847011951014   0.0846132068413   0.0845310862496   
      0.0844551480888   0.0843856706632   0.0843228980009   0.0842670419828   0.0842182843625   
      0.0841767786327   0.0841426517018   0.0841160053519   0.0840969174568   0.0840854429445   
      0.0928295856061   0.0928350745991   0.0928515264205   0.0928788953862   0.092917104654   
      0.0929660451778   0.0930255742599   0.0930955137176   0.0931756476892   0.0932657201119   
      0.0933654319134   0.0934744379723   0.0935923439139   0.0937187028249   0.0938530119844   
      0.0939947097288   0.0941431725817   0.0942977128006   0.0944575765023   0.0946219425442   
      0.0947899223454   0.0949605608282   0.095132838662   0.0953056759693   0.0954779376346   
      0.095648440318   0.0958159612363   0.095979248713   0.096137034444   0.0962880473519   
      0.0964310288343   0.0965647491377   0.096688024524   0.0967997348348   0.0968988410147   
      0.0969844021192   0.0970555913217   0.0971117104403   0.0971522025302   0.0971766621401   
      0.097184842893   0.0971766621401   0.0971522025302   0.0971117104403   0.0970555913217   
      0.0969844021192   0.0968988410147   0.0967997348348   0.096688024524   0.0965647491377   
      0.0964310288343   0.0962880473519   0.096137034444   0.095979248713   0.0958159612363   
      0.095648440318   0.0954779376346   0.0953056759693   0.095132838662   0.0949605608282   
      0.0947899223454   0.0946219425442   0.0944575765023   0.0942977128006   0.0941431725817   
      0.0939947097288   0.0938530119844   0.0937187028249   0.0935923439139   0.0934744379723   
      0.0933654319134   0.0932657201119   0.0931756476892   0.0930955137176   0.0930255742599   
      0.0929660451778   0.092917104654   0.0928788953862   0.0928515264205   0.0928350745991   
      0.107899691761   0.107908655477   0.107935522402   0.107980219497   0.108042623828   
      0.108122560768   0.108219801516   0.108334059948   0.108464988863   0.108612175662   
      0.108775137545   0.108953316318   0.109146072931   0.109352681876   0.109572325636   
      0.10980408936   0.110046956014   0.110299802239   0.110561395205   0.110830390758   
      0.111105333147   0.111384656654   0.111666689402   0.111949659608   0.112231704502   
      0.112510882066   0.112785185676   0.113052561642   0.113310929539   0.113558205092   
      0.113792325297   0.114011275318   0.114213116605   0.114396015592   0.114558272258   
      0.114698347784   0.114814890527   0.114906759554   0.114973045007   0.115013084673   
      0.115026476214   0.115013084673   0.114973045007   0.114906759554   0.114814890527   
      0.114698347784   0.114558272258   0.114396015592   0.114213116605   0.114011275318   
      0.113792325297   0.113558205092   0.113310929539   0.113052561642   0.112785185676   
      0.112510882066   0.112231704502   0.111949659608   0.111666689402   0.111384656654   
      0.111105333147   0.110830390758   0.110561395205   0.110299802239   0.110046956014   
      0.10980408936   0.109572325636   0.109352681876   0.109146072931   0.108953316318   
      0.108775137545   0.108612175662   0.108464988863   0.108334059948   0.108219801516   
      0.108122560768   0.108042623828   0.107980219497   0.107935522402   0.107908655477   
      0.120518608922   0.120531322014   0.120569426881   0.120632819771   0.120721325998   
      0.120834697332   0.120972608366   0.121134651947   0.121320333713   0.121529065825   
      0.121760160032   0.12201282019   0.122286134418   0.122579067117   0.1228904511   
      0.123218980115   0.123563202112   0.123921513609   0.12429215556   0.124673211137   
      0.125062605856   0.12545811046   0.125857346952   0.126257798118   0.126656820825   
      0.127051663259   0.1274394862   0.127817388257   0.128182434867   0.128531690722   
      0.128862255094   0.129171299426   0.129456106402   0.129714109598   0.129942932743   
      0.130140427567   0.130304709201   0.130434188127   0.13052759775   0.130584016767   
      0.130602885653   0.130584016767   0.13052759775   0.130434188127   0.130304709201   
      0.130140427567   0.129942932743   0.129714109598   0.129456106402   0.129171299426   
      0.128862255094   0.128531690722   0.128182434867   0.127817388257   0.1274394862   
      0.127051663259   0.126656820825   0.126257798118   0.125857346952   0.12545811046   
      0.125062605856   0.124673211137   0.12429215556   0.123921513609   0.123563202112   
      0.123218980115   0.1228904511   0.122579067117   0.122286134418   0.12201282019   
      0.121760160032   0.121529065825   0.121320333713   0.121134651947   0.120972608366   
      0.120834697332   0.120721325998   0.120632819771   0.120569426881   0.120531322014   
      0.132386869715   0.132403329856   0.132452664954   0.132534738332   0.132649319881   
      0.132796082614   0.13297459791   0.133184329526   0.133424626456   0.133694714783   
      0.133993688684   0.134320500782   0.13467395211   0.135052681966   0.135455158019   
      0.135879667057   0.136324306808   0.136786979344   0.137265386546   0.137757028194   
      0.138259203189   0.138769014432   0.139283377804   0.139799035657   0.140312575089   
      0.140820451175   0.141319015175   0.141804547555   0.142273295515   0.142721514486   
      0.143145512946   0.143541699662   0.143906632407   0.144237067018   0.144530005638   
      0.144782742925   0.14499290902   0.145158508144   0.145277951754   0.145350085351   
      0.145374208195   0.145350085351   0.145277951754   0.145158508144   0.14499290902   
      0.144782742925   0.144530005638   0.144237067018   0.143906632407   0.143541699662   
      0.143145512946   0.142721514486   0.142273295515   0.141804547555   0.141319015175   
      0.140820451175   0.140312575089   0.139799035657   0.139283377804   0.138769014432   
      0.138259203189   0.137757028194   0.137265386546   0.136786979344   0.136324306808   
      0.135879667057   0.135455158019   0.135052681966   0.13467395211   0.134320500782   
      0.133993688684   0.133694714783   0.133424626456   0.133184329526   0.13297459791   
      0.132796082614   0.132649319881   0.132534738332   0.132452664954   0.132403329856   
      0.142655032904   0.142674736147   0.142733790123   0.142832026726   0.142969162994   
      0.14314479696   0.143358401952   0.143609319415   0.143896750393   0.144219745849   
      0.144577196028   0.144967819134   0.145390149635   0.145842526579   0.14632308235   
      0.146829732351   0.147360166163   0.147911840751   0.148481976331   0.149067555508   
      0.149665326293   0.150271809545   0.15088331134   0.151495940643   0.152105632544   
      0.152708177148   0.153299254055   0.15387447213   0.154429414116   0.154959685392   
      0.155460966048   0.155929065238   0.156359976688   0.156749934112   0.157095465249   
      0.157393443244   0.157641134103   0.157836239062   0.157976930805   0.158061882627   
      0.158090289802   0.158061882627   0.157976930805   0.157836239062   0.157641134103   
      0.157393443244   0.157095465249   0.156749934112   0.156359976688   0.155929065238   
      0.155460966048   0.154959685392   0.154429414116   0.15387447213   0.153299254055   
      0.152708177148   0.152105632544   0.151495940643   0.15088331134   0.150271809545   
      0.149665326293   0.149067555508   0.148481976331   0.147911840751   0.147360166163   
      0.146829732351   0.14632308235   0.145842526579   0.145390149635   0.144967819134   
      0.144577196028   0.144219745849   0.143896750393   0.143609319415   0.143358401952   
      0.14314479696   0.142969162994   0.142832026726   0.142733790123   0.142674736147   
      0.150724012563   0.150746202593   0.150812708058   0.150923334128   0.15107775295   
      0.151275498986   0.15151596261   0.151798382074   0.152121834011   0.152485222676   
      0.152887268192   0.153326494133   0.153801214796   0.154309522636   0.154849276353   
      0.155418090208   0.156013325168   0.15663208255   0.15727120082   0.157927256224   
      0.158596567874   0.159275207873   0.15995901694   0.160643625892   0.161324483175   
      0.161996888443   0.16265603199   0.163297039643   0.163915022493   0.164505130648   
      0.165062610046   0.165582861174   0.166061498477   0.166494409156   0.166877810049   
      0.167208301293   0.167482915572   0.167699161806   0.167855062313   0.167949182604   
      0.167980653143   0.167949182604   0.167855062313   0.167699161806   0.167482915572   
      0.167208301293   0.166877810049   0.166494409156   0.166061498477   0.165582861174   
      0.165062610046   0.164505130648   0.163915022493   0.163297039643   0.16265603199   
      0.161996888443   0.161324483175   0.160643625892   0.15995901694   0.159275207873   
      0.158596567874   0.157927256224   0.15727120082   0.15663208255   0.156013325168   
      0.155418090208   0.154849276353   0.154309522636   0.153801214796   0.153326494133   
      0.152887268192   0.152485222676   0.152121834011   0.151798382074   0.15151596261   
      0.151275498986   0.15107775295   0.150923334128   0.150812708058   0.150746202593   
      0.156212559959   0.156236391994   0.156307817048   0.156426620951   0.156592443394   
      0.156804772941   0.15706294019   0.157366109215   0.157713267464   0.158103214369   
      0.158534548958   0.159005656831   0.159514696921   0.160059588548   0.160637999308   
      0.161247334423   0.161884728215   0.162547038404   0.163230843921   0.163932446947   
      0.164647879803   0.165372917262   0.166103094731   0.166833732596   0.167559966862   
      0.168276786001   0.168979073726   0.169661657185   0.170319359839   0.170947058146   
      0.171539740957   0.172092570439   0.172600943263   0.173060550729   0.173467436554   
      0.173818051056   0.174109300598   0.174338591243   0.174503865717   0.17460363294   
      0.174636989543   0.17460363294   0.174503865717   0.174338591243   0.174109300598   
      0.173818051056   0.173467436554   0.173060550729   0.172600943263   0.172092570439   
      0.171539740957   0.170947058146   0.170319359839   0.169661657185   0.168979073726   
      0.168276786001   0.167559966862   0.166833732596   0.166103094731   0.165372917262   
      0.164647879803   0.163932446947   0.163230843921   0.162547038404   0.161884728215   
      0.161247334423   0.160637999308   0.160059588548   0.159514696921   0.159005656831   
      0.158534548958   0.158103214369   0.157713267464   0.157366109215   0.15706294019   
      0.156804772941   0.156592443394   0.156426620951   0.156307817048   0.156236391994   
      0.158973988515   0.158998628231   0.159072472959   0.159195298403   0.159366727259   
      0.159586224091   0.159853088279   0.160166445211   0.160525235921   0.160928205404   
      0.161373889958   0.161860603909   0.162386426186   0.162949187255   0.163546457005   
      0.164175534222   0.164833438338   0.165516904186   0.166222380454   0.166946032566   
      0.167683750614   0.16843116289   0.169183655465   0.169936398054   0.170684376279   
      0.171422430182   0.17214529865   0.172847669192   0.173524232294   0.174169739383   
      0.17477906331   0.175347260122   0.175869630826   0.176341781869   0.176759683028   
      0.177119721519   0.177418751201   0.177654135898   0.177823785999   0.177926187626   
      0.177960423862   0.177926187626   0.177823785999   0.177654135898   0.177418751201   
      0.177119721519   0.176759683028   0.176341781869   0.175869630826   0.175347260122   
      0.17477906331   0.174169739383   0.173524232294   0.172847669192   0.17214529865   
      0.171422430182   0.170684376279   0.169936398054   0.169183655465   0.16843116289   
      0.167683750614   0.166946032566   0.166222380454   0.165516904186   0.164833438338   
      0.164175534222   0.163546457005   0.162949187255   0.162386426186   0.161860603909   
      0.161373889958   0.160928205404   0.160525235921   0.160166445211   0.159853088279   
      0.159586224091   0.159366727259   0.159195298403   0.159072472959   0.158998628231   
      0.158973988515   0.158998628231   0.159072472959   0.159195298403   0.159366727259   
      0.159586224091   0.159853088279   0.160166445211   0.160525235921   0.160928205404   
      0.161373889958   0.161860603909   0.162386426186   0.162949187255   0.163546457005   
      0.164175534222   0.164833438338   0.165516904186   0.166222380454   0.166946032566   
      0.167683750614   0.16843116289   0.169183655465   0.169936398054   0.170684376279   
      0.171422430182   0.17214529865   0.172847669192   0.173524232294   0.174169739383   
      0.17477906331   0.175347260122   0.175869630826   0.176341781869   0.176759683028   
      0.177119721519   0.177418751201   0.177654135898   0.177823785999   0.177926187626   
      0.177960423862   0.177926187626   0.177823785999   0.177654135898   0.177418751201   
      0.177119721519   0.176759683028   0.176341781869   0.175869630826   0.175347260122   
      0.17477906331   0.174169739383   0.173524232294   0.172847669192   0.17214529865   
      0.171422430182   0.170684376279   0.169936398054   0.169183655465   0.16843116289   
      0.167683750614   0.166946032566   0.166222380454   0.165516904186   0.164833438338   
      0.164175534222   0.163546457005   0.162949187255   0.162386426186   0.161860603909   
      0.161373889958   0.160928205404   0.160525235921   0.160166445211   0.159853088279   
      0.159586224091   0.159366727259   0.159195298403   0.159072472959   0.158998628231   
      0.156212559959   0.156236391994   0.156307817048   0.156426620951   0.156592443394   
      0.156804772941   0.15706294019   0.157366109215   0.157713267464   0.158103214369   
      0.158534548958   0.159005656831   0.159514696921   0.160059588548   0.160637999308   
      0.161247334423   0.161884728215   0.162547038404   0.163230843921   0.163932446947   
      0.164647879803   0.165372917262   0.166103094731   0.166833732596   0.167559966862   
      0.168276786001   0.168979073726   0.169661657185   0.170319359839   0.170947058146   
      0.171539740957   0.172092570439   0.172600943263   0.173060550729   0.173467436554   
      0.173818051056   0.174109300598   0.174338591243   0.174503865717   0.17460363294   
      0.174636989543   0.17460363294   0.174503865717   0.174338591243   0.174109300598   
      0.173818051056   0.173467436554   0.173060550729   0.172600943263   0.172092570439   
      0.171539740957   0.170947058146   0.170319359839   0.169661657185   0.168979073726   
      0.168276786001   0.167559966862   0.166833732596   0.166103094731   0.165372917262   
      0.164647879803   0.163932446947   0.163230843921   0.162547038404   0.161884728215   
      0.161247334423   0.160637999308   0.160059588548   0.159514696921   0.159005656831   
      0.158534548958   0.158103214369   0.157713267464   0.157366109215   0.15706294019   
      0.156804772941   0.156592443394   0.156426620951   0.156307817048   0.156236391994   
      0.150724012563   0.150746202593   0.150812708058   0.150923334128   0.15107775295   
      0.151275498986   0.15151596261   0.151798382074   0.152121834011   0.152485222676   
      0.152887268192   0.153326494133   0.153801214796   0.154309522636   0.154849276353   
      0.155418090208   0.156013325168   0.15663208255   0.15727120082   0.157927256224   
      0.158596567874   0.159275207873   0.15995901694   0.160643625892   0.161324483175   
      0.161996888443   0.16265603199   0.163297039643   0.163915022493   0.164505130648   
      0.165062610046   0.165582861174   0.166061498477   0.166494409156   0.166877810049   
      0.167208301293   0.167482915572   0.167699161806   0.167855062313   0.167949182604   
      0.167980653143   0.167949182604   0.167855062313   0.167699161806   0.167482915572   
      0.167208301293   0.166877810049   0.166494409156   0.166061498477   0.165582861174   
      0.165062610046   0.164505130648   0.163915022493   0.163297039643   0.16265603199   
      0.161996888443   0.161324483175   0.160643625892   0.15995901694   0.159275207873   
      0.158596567874   0.157927256224   0.15727120082   0.15663208255   0.156013325168   
      0.155418090208   0.154849276353   0.154309522636   0.153801214796   0.153326494133   
      0.152887268192   0.152485222676   0.152121834011   0.151798382074   0.15151596261   
      0.151275498986   0.15107775295   0.150923334128   0.150812708058   0.150746202593   
      0.142655032904   0.142674736147   0.142733790123   0.142832026726   0.142969162994   
      0.14314479696   0.143358401952   0.143609319415   0.143896750393   0.144219745849   
      0.144577196028   0.144967819134   0.145390149635   0.145842526579   0.14632308235   
      0.146829732351   0.147360166163   0.147911840751   0.148481976331   0.149067555508   
      0.149665326293   0.150271809545   0.15088331134   0.151495940643   0.152105632544   
      0.152708177148   0.153299254055   0.15387447213   0.154429414116   0.154959685392   
      0.155460966048   0.155929065238   0.156359976688   0.156749934112   0.157095465249   
      0.157393443244   0.157641134103   0.157836239062   0.157976930805   0.158061882627   
      0.158090289802   0.158061882627   0.157976930805   0.157836239062   0.157641134103   
      0.157393443244   0.157095465249   0.156749934112   0.156359976688   0.155929065238   
      0.155460966048   0.154959685392   0.154429414116   0.15387447213   0.153299254055   
      0.152708177148   0.152105632544   0.151495940643   0.15088331134   0.150271809545   
      0.149665326293   0.149067555508   0.148481976331   0.147911840751   0.147360166163   
      0.146829732351   0.14632308235   0.145842526579   0.145390149635   0.144967819134   
      0.144577196028   0.144219745849   0.143896750393   0.143609319415   0.143358401952   
      0.14314479696   0.142969162994   0.142832026726   0.142733790123   0.142674736147   
      0.132386869715   0.132403329856   0.132452664954   0.132534738332   0.132649319881   
      0.132796082614   0.13297459791   0.133184329526   0.133424626456   0.133694714783   
      0.133993688684   0.134320500782   0.13467395211   0.135052681966   0.135455158019   
      0.135879667057   0.136324306808   0.136786979344   0.137265386546   0.137757028194   
      0.138259203189   0.138769014432   0.139283377804   0.139799035657   0.140312575089   
      0.140820451175   0.141319015175   0.141804547555   0.142273295515   0.142721514486   
      0.143145512946   0.143541699662   0.143906632407   0.144237067018   0.144530005638   
      0.144782742925   0.14499290902   0.145158508144   0.145277951754   0.145350085351   
      0.145374208195   0.145350085351   0.145277951754   0.145158508144   0.14499290902   
      0.144782742925   0.144530005638   0.144237067018   0.143906632407   0.143541699662   
      0.143145512946   0.142721514486   0.142273295515   0.141804547555   0.141319015175   
      0.140820451175   0.140312575089   0.139799035657   0.139283377804   0.138769014432   
      0.138259203189   0.137757028194   0.137265386546   0.136786979344   0.136324306808   
      0.135879667057   0.135455158019   0.135052681966   0.13467395211   0.134320500782   
      0.133993688684   0.133694714783   0.133424626456   0.133184329526   0.13297459791   