<?xml version="1.0"?>
<VTKFile type="ImageData" version="0.1" byte_order="LittleEndian">
  <ImageData WholeExtent="0 79 0 19 0 19" Origin="0 0 0" Spacing="1 1 1">
  <Piece Extent="0 79 0 19 0 19">
    <PointData Scalars="density">
       <DataArray type="Float32" Name="reddensity" NumberOfComponents="1" format="ascii">
      0   0   0   0   0   
      0   0   0   0   0   
      0   0   0   0   0   
      0   0   0   0   0   
      0   0   0   0   0   
      0   0   0   0   0   
      0   0   0   0   0   
      0   0   0   0   0   
      0   0   0   0   0   
      0   0   0   0   0   
      0   0   0   0   0   
      0   0   0   0   0   
      0   0   0   0   0   
      0   0   0   0   0   
      0   0   0   0   0   
      0   0   0   0   0   
      0   0   0   0   0   
      0   0   0   0   0   
      0   0   0   0   0   
      0   0   0   0   0   
      0   0   0   0   0   
      0   0   0   0   0   
      0   0   0   0   0   
      0   0   0   0   0   
      0   0   0   0   0   
      0   0   0   0   0   
      0   0   0   0   0   
      0   0   0   0   0   
      0   0   0   0   0   
      0   0   0   0   0   
      0   0   0   0   0   
      0   0   0   0   0   
      0   0   0   0   0   
      0   0   0   0   0   
      0   0   0   0   0   
      0   0   0   0   0   
      0   0   0   0   0   
      0   0   0   0   0   
      0   0   0   0   0   
      0   0   0   0   0   
      0   0   0   0   0   
      0   0   0   0   0   
      0   0   0   0   0   
      0   0   0   0   0   
      0   0   0   0   0   
      0   0   0   0   0   
      0   0   0   0   0   
      0   0   0   0   0   
      0   0   0   0   0   
      0   0   0   0   0   
      0   0   0   0   0   
      0   0   0   0   0   
      0   0   0   0   0   
      0   0   0   0   0   
      0   0   0   0   0   
      0   0   0   0   0   
      0   0   0   0   0   
      0   0   0   0   0   
      0   0   0   0   0   
      0   0   0   0   0   
      0   0   0   0   0   
      0   0   0   0   0   
      0   0   0   0   0   
      0   0   0   0   0   
      0   0   0   0   0   
      0   0   0   0   0   
      0   0   0   0   0   
      0   0   0   0   0   
      0   0   0   0   0   
      0   0   0   0   0   
      0   0   0   0   0   
      0   0   0   0   0   
      0   0   0   0   0   
      0   0   0   0   0   
      0   0   0   0   0   
      0   0   0   0   0   
      0   0   0   0   0   
      0   0   0   0   0   
      0   0   0   0   0   
      0   0   0   0   0   
      0   0   0   0   0   
      0   0   0   0   0   
      0   0   0   0   0   
      0   0   0   0   0   
      0   0   0   0   0   
      0   0   0   0   0   
      0   0   0   0   0   
      0   0   0   0   0   
      0   0   0   0   0   
      0   0   0   0   0   
      0   0   0   0   0   
      0   0   0   0   0   
      0   0   0   0   0   
      0   0   0   0   0   
      0   0   0   0   0   
      0   0   0   0   0   
      0   0   0   0   0   
      0   0   0   0   0   
      0   0   0   0   0   
      0   0   0   0   0   
      0   0   0   0   0   
      0   0   0   0   0   
      0   0   0   0   0   
      0   0   0   0   0   
      0   0   0   0   0   
      0   0   0   0   0   
      0   0   0   0   0   
      0   0   0   0   0   
      0   0   0   0   0   
      0   0   0   0   0   
      0   0   0   0   0   
      0   0   0   0   0   
      0   0   0   0   0   
      0   0   0   0   0   
      0   0   0   0   0   
      0   0   0   0   0   
      0   0   0   0   0   
      0   0   0   0   0   
      0   0   0   0   0   
      0   0   0   0   0   
      0   0   0   0   0   
      0   0   0   0   0   
      0   0   0   0   0   
      0   0   0   0   0   
      0   0   0   0   0   
      0   0   0   0   0   
      0   0   0   0   0   
      0   0   0   0   0   
      0   0   0   0   0   
      0   0   0   0   0   
      0   0   0   0   0   
      0   0   0   0   0   
      0   0   0   0   0   
      0   0   0   0   0   
      0   0   0   0   0   
      0   0   0   0   0   
      0   0   0   0   0   
      0   0   0   0   0   
      0   0   0   0   0   
      0   0   0   0   0   
      0   0   0   0   0   
      0   0   0   0   0   
      0   0   0   0   0   
      0   0   0   0   0   
      0   0   0   0   0   
      0   0   0   0   0   
      0   0   0   0   0   
      0   0   0   0   0   
      0   0   0   0   0   
      0   0   0   0   0   
      0   0   0   0   0   
      0   0   0   0   0   
      0   0   0   0   0   
      0   0   0   0   0   
      0   0   0   0   0   
      0   0   0   0   0   
      0   0   0   0   0   
      0   0   0   0   0   
      0   0   0   0   0   
      0   0   0   0   0   
      0   0   0   0   0   
      0   0   0   0   0   
      0   0   0   0   0   
      0   0   0   0   0   
      0   0   0   0   0   
      0   0   0   0   0   
      0   0   0   0   0   
      0   0   0   0   0   
      0   0   0   0   0   
      0   0   0   0   0   
      0   0   0   0   0   
      0   0   0   0   0   
      0   0   0   0   0   
      0   0   0   0   0   
      0   0   0   0   0   
      0   0   0   0   0   
      0   0   0   0   0   
      0   0   0   0   0   
      0   0   0   0   0   
      0   0   0   0   0   
      0   0   0   0   0   
      0   0   0   0   0   
      0   0   0   0   0   
      0   0   0   0   0   
      0   0   0   0   0   
      0   0   0   0   0   
      0   0   0   0   0   
      0   0   0   0   0   
      0   0   0   0   0   
      0   0   0   0   0   
      0   0   0   0   0   
      0   0   0   0   0   
      0   0   0   0   0   
      0   0   0   0   0   
      0   0   0   0   0   
      0   0   0   0   0   
      0   0   0   0   0   
      0   0   0   0   0   
      0   0   0   0   0   
      0   0   0   0   0   
      0   0   0   0   0   
      0   0   0   0   0   
      0   0   0   0   0   
      0   0   0   0   0   
      0   0   0   0   0   
      0   0   0   0   0   
      0   0   0   0   0   
      0   0   0   0   0   
      0   0   0   0   0   
      0   0   0   0   0   
      0   0   0   0   0   
      0   0   0   0   0   
      0   0   0   0   0   
      0   0   0   0   0   
      0   0   0   0   0   
      0   0   0   0   0   
      0   0   0   0   0   
      0   0   0   0   0   
      0   0   0   0   0   
      0   0   0   0   0   
      0   0   0   0   0   
      0   0   0   0   0   
      0   0   0   0   0   
      0   0   0   0   0   
      0   0   0   0   0   
      0   0   0   0   0   
      0   0   0   0   0   
      0   0   0   0   0   
      0   0   0   0   0   
      0   0   0   0   0   
      0   0   0   0   0   
      0   0   0   0   0   
      0   0   0   0   0   
      0   0   0   0   0   
      0   0   0   0   0   
      0   0   0   0   0   
      0   0   0   0   0   
      0   0   0   0   0   
      0   0   0   0   0   
      0   0   0   0   0   
      0   0   0   0   0   
      0   0   0   0   0   
      0   0   0   0   0   
      0   0   0   0   0   
      0   0   0   0   0   
      0   0   0   0   0   
      0   0   0   0   0   
      0   0   0   0   0   
      0   0   0   0   0   
      0   0   0   0   0   
      0   0   0   0   0   
      0   0   0   0   0   
      0   0   0   0   0   
      0   0   0   0   0   
      0   0   0   0   0   
      0   0   0   0   0   
      0   0   0   0   0   
      0   0   0   0   0   
      0   0   0   0   0   
      0   0   0   0   0   
      0   0   0   0   0   
      0   0   0   0   0   
      0   0   0   0   0   
      0   0   0   0   0   
      0   0   0   0   0   
      0   0   0   0   0   
      0   0   0   0   0   
      0   0   0   0   0   
      0   0   0   0   0   
      0   0   0   0   0   
      0   0   0   0   0   
      0   0   0   0   0   
      0   0   0   0   0   
      0   0   0   0   0   
      0   0   0   0   0   
      0   0   0   0   0   
      0   0   0   0   0   
      0   0   0   0   0   
      0   0   0   0   0   
      0   0   0   0   0   
      0   0   0   0   0   
      0   0   0   0   0   
      0   0   0   0   0   
      0   0   0   0   0   
      0   0   0   0   0   
      0   0   0   0   0   
      0   0   0   0   0   
      0   0   0   0   0   
      0   0   0   0   0   
      0   0   0   0   0   
      0   0   0   0   0   
      0   0   0   0   0   
      0   0   0   0   0   
      0   0   0   0   0   
      0   0   0   0   0   
      0   0   0   0   0   
      0   0   0   0   0   
      0   0   0   0   0   
      0   0   0   0   0   
      0   0   0   0   0   
      0   0   0   0   0   
      0   0   0   0   0   
      0   0   0   0   0   
      0   0   0   0   0   
      0   0   0   0   0   
      0   0   0   0   0   
      0   0   0   0   0   
      0   0   0   0   0   
      0   0   0   0   0   
      0   0   0   0   0   
      0   0   0   0   0   
      0   0   0   0   0   
      0   0   0   0   0   
      0   0   0   0   0   
      0   0   0   0   0   
      0   0   0   0   0   
      0   0   0   0   0   
      0   0   0   0   0   
      0   0   0   0   0   
      0   0   0   0   0   
      0   0   0   0   0   
      0   0   0   0   0   
      0   0   0   0   0   
      0   0   0   0   0   
      0   0   0   0   0   
      0   0   0   0   0   
      0   0   0   0   0   
      0   0   0   0   0   
      0   0   0   0   0   
      0   0   0   0   0   
      0   0   0   0   0   
      0   0   0   0   0   
      0   0   0   0   0   
      0   0   0   0   0   
      0   0   0   0   0   
      0   0   0   0   0   
      0.0843395449686   0.0843427249995   0.0843522541888   0.0843680997389   0.0843902066948   
      0.0844184975135   0.0844528714714   0.0844932039249   0.0845393454398   0.0845911208111   
      0.084648328001   0.0847107370255   0.0847780888286   0.0848500941892   0.0849264327089   
      0.08500675194   0.0850906667134   0.0851777587348   0.0852675765201   0.0853596357405   
      0.0854534200518   0.085548382475   0.0856439473925   0.085739513213   0.0858344557467   
      0.0859281323137   0.0860198865914   0.0861090541815   0.0861949688529   0.0862769693899   
      0.0863544069473   0.0864266527885   0.0864931062583   0.0865532028205   0.0866064219756   
      0.0866522948648   0.0866904113618   0.0867204264612   0.0867420657829   0.0867551300339   
      0.086759498295   0.0867551300339   0.0867420657829   0.0867204264612   0.0866904113618   
      0.0866522948648   0.0866064219756   0.0865532028205   0.0864931062583   0.0864266527885   
      0.0863544069473   0.0862769693899   0.0861949688529   0.0861090541815   0.0860198865914   
      0.0859281323137   0.0858344557467   0.085739513213   0.0856439473925   0.085548382475   
      0.0854534200518   0.0853596357405   0.0852675765201   0.0851777587348   0.0850906667134   
      0.08500675194   0.0849264327089   0.0848500941892   0.0847780888286   0.0847107370255   
      0.084648328001   0.0845911208111   0.0845393454398   0.0844932039249   0.0844528714714   
      0.0844184975135   0.0843902066948   0.0843680997389   0.0843522541888   0.0843427249995   
      0.093201215151   0.0932057783234   0.093219452445   0.0932421911952   0.0932739169323   
      0.0933145200406   0.0933638580359   0.0934217544461   0.0934879974937   0.0935623386122   
      0.0936444908348   0.0937341271058   0.0938308785682   0.093934332896   0.0940440327438   
      0.0941594743994   0.0942801067299   0.0944053305203   0.0945344983094   0.0946669148288   
      0.0948018381504   0.0949384816441   0.0950760168378   0.0952135772564   0.095350263301   
      0.0954851481996   0.0956172850373   0.0957457148357   0.0958694756167   0.0959876123457   
      0.0960991876116   0.0962032928603   0.0962990599648   0.0963856728877   0.096462379165   
      0.0965285009304   0.0965834451948   0.0966267131023   0.096657907904   0.0966767414193   
      0.0966830387949   0.0966767414193   0.096657907904   0.0966267131023   0.0965834451948   
      0.0965285009304   0.096462379165   0.0963856728877   0.0962990599648   0.0962032928603   
      0.0960991876116   0.0959876123457   0.0958694756167   0.0957457148357   0.0956172850373   
      0.0954851481996   0.095350263301   0.0952135772564   0.0950760168378   0.0949384816441   
      0.0948018381504   0.0946669148288   0.0945344983094   0.0944053305203   0.0942801067299   
      0.0941594743994   0.0940440327438   0.093934332896   0.0938308785682   0.0937341271058   
      0.0936444908348   0.0935623386122   0.0934879974937   0.0934217544461   0.0933638580359   
      0.0933145200406   0.0932739169323   0.0932421911952   0.093219452445   0.0932057783234   
      0.108509570217   0.108517027261   0.108539373549   0.108576534324   0.108628384233   
      0.108694746207   0.10877538992   0.108870029874   0.108978323134   0.10909986678   
      0.109234195149   0.109380776934   0.109539012256   0.1097082298   0.109887684162   
      0.110076553535   0.110273937896   0.110478857859   0.110690254366   0.110906989391   
      0.111127847835   0.111351540783   0.111576710253   0.111801935584   0.112025741541   
      0.112246608188   0.112462982536   0.112673291905   0.112875958887   0.113069417732   
      0.113252131915   0.113422612576   0.113579437482   0.113721270107   0.113846878384   
      0.113955152684   0.114045122554   0.114115971771   0.114167051297   0.114197889768   
      0.114208201209   0.114197889768   0.114167051297   0.114115971771   0.114045122554   
      0.113955152684   0.113846878384   0.113721270107   0.113579437482   0.113422612576   
      0.113252131915   0.113069417732   0.112875958887   0.112673291905   0.112462982536   
      0.112246608188   0.112025741541   0.111801935584   0.111576710253   0.111351540783   
      0.111127847835   0.110906989391   0.110690254366   0.110478857859   0.110273937896   
      0.110076553535   0.109887684162   0.1097082298   0.109539012256   0.109380776934   
      0.109234195149   0.10909986678   0.108978323134   0.108870029874   0.10877538992   
      0.108694746207   0.108628384233   0.108576534324   0.108539373549   0.108517027261   
      0.121386593953   0.121397169954   0.121428862612   0.121481565569   0.121555100462   
      0.121649215299   0.121763582237   0.121897794803   0.122051364634   0.122223717817   
      0.12241419092   0.122622026865   0.122846370748   0.123086265812   0.123340649721   
      0.123608351379   0.123888088482   0.124178466071   0.124477976309   0.124784999748   
      0.12509780831   0.125414570226   0.125733357109   0.12605215335   0.126368867913   
      0.126681348612   0.126987398829   0.12728479658   0.127571315754   0.127844749242   
      0.128102933616   0.128343774929   0.128565275116   0.128765558463   0.128942897527   
      0.129095737904   0.129222721218   0.129322705741   0.129394784105   0.129438297609   
      0.129452846742   0.129438297609   0.129394784105   0.129322705741   0.129222721218   
      0.129095737904   0.128942897527   0.128765558463   0.128565275116   0.128343774929   
      0.128102933616   0.127844749242   0.127571315754   0.12728479658   0.126987398829   
      0.126681348612   0.126368867913   0.12605215335   0.125733357109   0.125414570226   
      0.12509780831   0.124784999748   0.124477976309   0.124178466071   0.123888088482   
      0.123608351379   0.123340649721   0.123086265812   0.122846370748   0.122622026865   
      0.12241419092   0.122223717817   0.122051364634   0.121897794803   0.121763582237   
      0.121649215299   0.121555100462   0.121481565569   0.121428862612   0.121397169954   
      0.133513363855   0.133527049879   0.133568061576   0.133636259397   0.133731409329   
      0.133853180795   0.134001143769   0.134174765192   0.134373404772   0.134596310284   
      0.134842612515   0.135111320019   0.135401313878   0.135711342684   0.136040018004   
      0.136385810585   0.136747047601   0.137121911244   0.137508438973   0.137904525734   
      0.138307928438   0.138716272978   0.13912706401   0.139537697674   0.139945477358   
      0.140347632549   0.140741340689   0.141123751884   0.141492016207   0.141843313221   
      0.142174883256   0.142484059893   0.142768303028   0.14302523181   0.143252656756   
      0.143448610277   0.143611374906   0.143739508527   0.143831865967   0.143887616405   
      0.143906256141   0.143887616405   0.143831865967   0.143739508527   0.143611374906   
      0.143448610277   0.143252656756   0.14302523181   0.142768303028   0.142484059893   
      0.142174883256   0.141843313221   0.141492016207   0.141123751884   0.140741340689   
      0.140347632549   0.139945477358   0.139537697674   0.13912706401   0.138716272978   
      0.138307928438   0.137904525734   0.137508438973   0.137121911244   0.136747047601   
      0.136385810585   0.136040018004   0.135711342684   0.135401313878   0.135111320019   
      0.134842612515   0.134596310284   0.134373404772   0.134174765192   0.134001143769   
      0.133853180795   0.133731409329   0.133636259397   0.133568061576   0.133527049879   
      0.144005590884   0.144021959343   0.144071008104   0.144152566808   0.144266349832   
      0.144411953804   0.144588854202   0.144796401134   0.145033814423   0.14530017813   
      0.145594434702   0.145915378954   0.146261652127   0.146631736291   0.14702394941   
      0.147436441374   0.147867191372   0.148314006952   0.148774525132   0.149246215918   
      0.149726388556   0.150212200809   0.150700671497   0.151188696461   0.151673068035   
      0.152150498017   0.152617644   0.153071138853   0.153507622975   0.153923778886   
      0.154316367589   0.154682266037   0.155018505014   0.155322306625   0.155591120632   
      0.1558226588   0.156014926506   0.156166250867   0.156275304722   0.156341125917   
      0.156363131419   0.156341125917   0.156275304722   0.156166250867   0.156014926506   
      0.1558226588   0.155591120632   0.155322306625   0.155018505014   0.154682266037   
      0.154316367589   0.153923778886   0.153507622975   0.153071138853   0.152617644   
      0.152150498017   0.151673068035   0.151188696461   0.150700671497   0.150212200809   
      0.149726388556   0.149246215918   0.148774525132   0.148314006952   0.147867191372   
      0.147436441374   0.14702394941   0.146631736291   0.146261652127   0.145915378954   
      0.145594434702   0.14530017813   0.145033814423   0.144796401134   0.144588854202   
      0.144411953804   0.144266349832   0.144152566808   0.144071008104   0.144021959343   
      0.152246512274   0.15226492924   0.152320115052   0.152411873881   0.152539877482   
      0.152703662439   0.152902626419   0.153136023542   0.153402958996   0.153702383081   
      0.154033084891   0.154393685871   0.154782633544   0.155198195713   0.155638455492   
      0.156101307524   0.156584455797   0.157085413432   0.157601504848   0.158129870684   
      0.158667475803   0.159211120681   0.159757456401   0.160303003386   0.160844173919   
      0.161377298375   0.161898654984   0.162404502822   0.162891117598   0.163354829711   
      0.163792063949   0.164199380102   0.164573513737   0.164911416302   0.165210293755   
      0.165467642895   0.165681284618   0.165849393391   0.165970522299   0.166043623106   
      0.166068060918   0.166043623106   0.165970522299   0.165849393391   0.165681284618   
      0.165467642895   0.165210293755   0.164911416302   0.164573513737   0.164199380102   
      0.163792063949   0.163354829711   0.162891117598   0.162404502822   0.161898654984   
      0.161377298375   0.160844173919   0.160303003386   0.159757456401   0.159211120681   
      0.158667475803   0.158129870684   0.157601504848   0.157085413432   0.156584455797   
      0.156101307524   0.155638455492   0.155198195713   0.154782633544   0.154393685871   
      0.154033084891   0.153702383081   0.153402958996   0.153136023542   0.152902626419   
      0.152703662439   0.152539877482   0.152411873881   0.152320115052   0.15226492924   
      0.15784862512   0.157868389288   0.157927610716   0.158026075579   0.15816342553   
      0.158339154801   0.158552606264   0.158802966567   0.159089260508   0.159410344839   
      0.159764901729   0.16015143216   0.160568249572   0.161013474087   0.161485027695   
      0.161980630804   0.162497800559   0.163033851352   0.163585897929   0.164150861483   
      0.164725479059   0.165306316567   0.165889785594   0.16647216413   0.167049621203   
      0.167618245324   0.168174076488   0.16871314138   0.169231491312   0.1697252423   
      0.170190616608   0.170623985022   0.171021909038   0.17138118216   0.171698869478   
      0.171972344734   0.172199324112   0.172377896079   0.172506546668   0.172584179685   
      0.172610131434   0.172584179685   0.172506546668   0.172377896079   0.172199324112   
      0.171972344734   0.171698869478   0.17138118216   0.171021909038   0.170623985022   
      0.170190616608   0.1697252423   0.169231491312   0.16871314138   0.168174076488   
      0.167618245324   0.167049621203   0.16647216413   0.165889785594   0.165306316567   
      0.164725479059   0.164150861483   0.163585897929   0.163033851352   0.162497800559   
      0.161980630804   0.161485027695   0.161013474087   0.160568249572   0.16015143216   
      0.159764901729   0.159410344839   0.159089260508   0.158802966567   0.158552606264   
      0.158339154801   0.15816342553   0.158026075579   0.157927610716   0.157868389288   
      0.160665917709   0.160686342578   0.160747543019   0.160849295926   0.160991227437   
      0.161172809975   0.161393358219   0.161652024153   0.161947791339   0.16227946863   
      0.162645683566   0.163044875728   0.163475290396   0.163934972838   0.164421763644   
      0.164933295507   0.165466991868   0.166020067871   0.166589534014   0.167172202909   
      0.167764699462   0.168363474761   0.168964823848   0.169564907483   0.170159777855   
      0.170745408126   0.17131772552   0.171872647582   0.172406121097   0.172914163068   
      0.173392903042   0.173838626044   0.174247815292   0.174617193895   0.174943764706   
      0.175224847541   0.175458113049   0.175641612557   0.175773803305   0.175853568597   
      0.175880232467   0.175853568597   0.175773803305   0.175641612557   0.175458113049   
      0.175224847541   0.174943764706   0.174617193895   0.174247815292   0.173838626044   
      0.173392903042   0.172914163068   0.172406121097   0.171872647582   0.17131772552   
      0.170745408126   0.170159777855   0.169564907483   0.168964823848   0.168363474761   
      0.167764699462   0.167172202909   0.166589534014   0.166020067871   0.165466991868   
      0.164933295507   0.164421763644   0.163934972838   0.163475290396   0.163044875728   
      0.162645683566   0.16227946863   0.161947791339   0.161652024153   0.161393358219   
      0.161172809975   0.160991227437   0.160849295926   0.160747543019   0.160686342578   
      0.160665917709   0.160686342578   0.160747543019   0.160849295926   0.160991227437   
      0.161172809975   0.161393358219   0.161652024153   0.161947791339   0.16227946863   
      0.162645683566   0.163044875728   0.163475290396   0.163934972838   0.164421763644   
      0.164933295507   0.165466991868   0.166020067871   0.166589534014   0.167172202909   
      0.167764699462   0.168363474761   0.168964823848   0.169564907483   0.170159777855   
      0.170745408126   0.17131772552   0.171872647582   0.172406121097   0.172914163068   
      0.173392903042   0.173838626044   0.174247815292   0.174617193895   0.174943764706   
      0.175224847541   0.175458113049   0.175641612557   0.175773803305   0.175853568597   
      0.175880232467   0.175853568597   0.175773803305   0.175641612557   0.175458113049   
      0.175224847541   0.174943764706   0.174617193895   0.174247815292   0.173838626044   
      0.173392903042   0.172914163068   0.172406121097   0.171872647582   0.17131772552   
      0.170745408126   0.170159777855   0.169564907483   0.168964823848   0.168363474761   
      0.167764699462   0.167172202909   0.166589534014   0.166020067871   0.165466991868   
      0.164933295507   0.164421763644   0.163934972838   0.163475290396   0.163044875728   
      0.162645683566   0.16227946863   0.161947791339   0.161652024153   0.161393358219   
      0.161172809975   0.160991227437   0.160849295926   0.160747543019   0.160686342578   
      0.15784862512   0.157868389288   0.157927610716   0.158026075579   0.15816342553   
      0.158339154801   0.158552606264   0.158802966567   0.159089260508   0.159410344839   
      0.159764901729   0.16015143216   0.160568249572   0.161013474087   0.161485027695   
      0.161980630804   0.162497800559   0.163033851352   0.163585897929   0.164150861483   
      0.164725479059   0.165306316567   0.165889785594   0.16647216413   0.167049621203   
      0.167618245324   0.168174076488   0.16871314138   0.169231491312   0.1697252423   
      0.170190616608   0.170623985022   0.171021909038   0.17138118216   0.171698869478   
      0.171972344734   0.172199324112   0.172377896079   0.172506546668   0.172584179685   
      0.172610131434   0.172584179685   0.172506546668   0.172377896079   0.172199324112   
      0.171972344734   0.171698869478   0.17138118216   0.171021909038   0.170623985022   
      0.170190616608   0.1697252423   0.169231491312   0.16871314138   0.168174076488   
      0.167618245324   0.167049621203   0.16647216413   0.165889785594   0.165306316567   
      0.164725479059   0.164150861483   0.163585897929   0.163033851352   0.162497800559   
      0.161980630804   0.161485027695   0.161013474087   0.160568249572   0.16015143216   
      0.159764901729   0.159410344839   0.159089260508   0.158802966567   0.158552606264   
      0.158339154801   0.15816342553   0.158026075579   0.157927610716   0.157868389288   
      0.152246512274   0.15226492924   0.152320115052   0.152411873881   0.152539877482   
      0.152703662439   0.152902626419   0.153136023542   0.153402958996   0.153702383081   
      0.154033084891   0.154393685871   0.154782633544   0.155198195713   0.155638455492   
      0.156101307524   0.156584455797   0.157085413432   0.157601504848   0.158129870684   
      0.158667475803   0.159211120681   0.159757456401   0.160303003386   0.160844173919   
      0.161377298375   0.161898654984   0.162404502822   0.162891117598   0.163354829711   
      0.163792063949   0.164199380102   0.164573513737   0.164911416302   0.165210293755   
      0.165467642895   0.165681284618   0.165849393391   0.165970522299   0.166043623106   
      0.166068060918   0.166043623106   0.165970522299   0.165849393391   0.165681284618   
      0.165467642895   0.165210293755   0.164911416302   0.164573513737   0.164199380102   
      0.163792063949   0.163354829711   0.162891117598   0.162404502822   0.161898654984   
      0.161377298375   0.160844173919   0.160303003386   0.159757456401   0.159211120681   
      0.158667475803   0.158129870684   0.157601504848   0.157085413432   0.156584455797   
      0.156101307524   0.155638455492   0.155198195713   0.154782633544   0.154393685871   
      0.154033084891   0.153702383081   0.153402958996   0.153136023542   0.152902626419   
      0.152703662439   0.152539877482   0.152411873881   0.152320115052   0.15226492924   
      0.144005590884   0.144021959343   0.144071008104   0.144152566808   0.144266349832   
      0.144411953804   0.144588854202   0.144796401134   0.145033814423   0.14530017813   
      0.145594434702   0.145915378954   0.146261652127   0.146631736291   0.14702394941   
      0.147436441374   0.147867191372   0.148314006952   0.148774525132   0.149246215918   
      0.149726388556   0.150212200809   0.150700671497   0.151188696461   0.151673068035   
      0.152150498017   0.152617644   0.153071138853   0.153507622975   0.153923778886   
      0.154316367589   0.154682266037   0.155018505014   0.155322306625   0.155591120632   
      0.1558226588   0.156014926506   0.156166250867   0.156275304722   0.156341125917   
      0.156363131419   0.156341125917   0.156275304722   0.156166250867   0.156014926506   
      0.1558226588   0.155591120632   0.155322306625   0.155018505014   0.154682266037   
      0.154316367589   0.153923778886   0.153507622975   0.153071138853   0.152617644   
      0.152150498017   0.151673068035   0.151188696461   0.150700671497   0.150212200809   
      0.149726388556   0.149246215918   0.148774525132   0.148314006952   0.147867191372   
      0.147436441374   0.14702394941   0.146631736291   0.146261652127   0.145915378954   
      0.145594434702   0.14530017813   0.145033814423   0.144796401134   0.144588854202   
      0.144411953804   0.144266349832   0.144152566808   0.144071008104   0.144021959343   
      0.133513363855   0.133527049879   0.133568061576   0.133636259397   0.133731409329   
      0.133853180795   0.134001143769   0.134174765192   0.134373404772   0.134596310284   
      0.134842612515   0.135111320019   0.135401313878   0.135711342684   0.136040018004   
      0.136385810585   0.136747047601   0.137121911244   0.137508438973   0.137904525734   
      0.138307928438   0.138716272978   0.13912706401   0.139537697674   0.139945477358   
      0.140347632549   0.140741340689   0.141123751884   0.141492016207   0.141843313221   
      0.142174883256   0.142484059893   0.142768303028   0.14302523181   0.143252656756   
      0.143448610277   0.143611374906   0.143739508527   0.143831865967   0.143887616405   
      0.143906256141   0.143887616405   0.143831865967   0.143739508527   0.143611374906   
      0.143448610277   0.143252656756   0.14302523181   0.142768303028   0.142484059893   
      0.142174883256   0.141843313221   0.141492016207   0.141123751884   0.140741340689   
      0.140347632549   0.139945477358   0.139537697674   0.13912706401   0.138716272978   
      0.138307928438   0.137904525734   0.137508438973   0.137121911244   0.136747047601   
      0.136385810585   0.136040018004   0.135711342684   0.135401313878   0.135111320019   
      0.134842612515   0.134596310284   0.134373404772   0.134174765192   0.134001143769   