<?xml version="1.0"?>
<VTKFile type="ImageData" version="0.1" byte_order="LittleEndian">
  <ImageData WholeExtent="0 79 0 19 0 19" Origin="0 0 0" Spacing="1 1 1">
  <Piece Extent="0 79 0 19 0 19">
    <PointData Scalars="density">
       <DataArray type="Float32" Name="reddensity" NumberOfComponents="1" format="ascii">
      0   0   0   0   0   
      0   0   0   0   0   
      0   0   0   0   0   
      0   0   0   0   0   
      0   0   0   0   0   
      0   0   0   0   0   
      0   0   0   0   0   
      0   0   0   0   0   
      0   0   0   0   0   
      0   0   0   0   0   
      0   0   0   0   0   
      0   0   0   0   0   
      0   0   0   0   0   
      0   0   0   0   0   
      0   0   0   0   0   
      0   0   0   0   0   
      0   0   0   0   0   
      0   0   0   0   0   
      0   0   0   0   0   
      0   0   0   0   0   
      0   0   0   0   0   
      0   0   0   0   0   
      0   0   0   0   0   
      0   0   0   0   0   
      0   0   0   0   0   
      0   0   0   0   0   
      0   0   0   0   0   
      0   0   0   0   0   
      0   0   0   0   0   
      0   0   0   0   0   
      0   0   0   0   0   
      0   0   0   0   0   
      0   0   0   0   0   
      0   0   0   0   0   
      0   0   0   0   0   
      0   0   0   0   0   
      0   0   0   0   0   
      0   0   0   0   0   
      0   0   0   0   0   
      0   0   0   0   0   
      0   0   0   0   0   
      0   0   0   0   0   
      0   0   0   0   0   
      0   0   0   0   0   
      0   0   0   0   0   
      0   0   0   0   0   
      0   0   0   0   0   
      0   0   0   0   0   
      0   0   0   0   0   
      0   0   0   0   0   
      0   0   0   0   0   
      0   0   0   0   0   
      0   0   0   0   0   
      0   0   0   0   0   
      0   0   0   0   0   
      0   0   0   0   0   
      0   0   0   0   0   
      0   0   0   0   0   
      0   0   0   0   0   
      0   0   0   0   0   
      0   0   0   0   0   
      0   0   0   0   0   
      0   0   0   0   0   
      0   0   0   0   0   
      0   0   0   0   0   
      0   0   0   0   0   
      0   0   0   0   0   
      0   0   0   0   0   
      0   0   0   0   0   
      0   0   0   0   0   
      0   0   0   0   0   
      0   0   0   0   0   
      0   0   0   0   0   
      0   0   0   0   0   
      0   0   0   0   0   
      0   0   0   0   0   
      0   0   0   0   0   
      0   0   0   0   0   
      0   0   0   0   0   
      0   0   0   0   0   
      0   0   0   0   0   
      0   0   0   0   0   
      0   0   0   0   0   
      0   0   0   0   0   
      0   0   0   0   0   
      0   0   0   0   0   
      0   0   0   0   0   
      0   0   0   0   0   
      0   0   0   0   0   
      0   0   0   0   0   
      0   0   0   0   0   
      0   0   0   0   0   
      0   0   0   0   0   
      0   0   0   0   0   
      0   0   0   0   0   
      0   0   0   0   0   
      0   0   0   0   0   
      0   0   0   0   0   
      0   0   0   0   0   
      0   0   0   0   0   
      0   0   0   0   0   
      0   0   0   0   0   
      0   0   0   0   0   
      0   0   0   0   0   
      0   0   0   0   0   
      0   0   0   0   0   
      0   0   0   0   0   
      0   0   0   0   0   
      0   0   0   0   0   
      0   0   0   0   0   
      0   0   0   0   0   
      0   0   0   0   0   
      0   0   0   0   0   
      0   0   0   0   0   
      0   0   0   0   0   
      0   0   0   0   0   
      0   0   0   0   0   
      0   0   0   0   0   
      0   0   0   0   0   
      0   0   0   0   0   
      0   0   0   0   0   
      0   0   0   0   0   
      0   0   0   0   0   
      0   0   0   0   0   
      0   0   0   0   0   
      0   0   0   0   0   
      0   0   0   0   0   
      0   0   0   0   0   
      0   0   0   0   0   
      0   0   0   0   0   
      0   0   0   0   0   
      0   0   0   0   0   
      0   0   0   0   0   
      0   0   0   0   0   
      0   0   0   0   0   
      0   0   0   0   0   
      0   0   0   0   0   
      0   0   0   0   0   
      0   0   0   0   0   
      0   0   0   0   0   
      0   0   0   0   0   
      0   0   0   0   0   
      0   0   0   0   0   
      0   0   0   0   0   
      0   0   0   0   0   
      0   0   0   0   0   
      0   0   0   0   0   
      0   0   0   0   0   
      0   0   0   0   0   
      0   0   0   0   0   
      0   0   0   0   0   
      0   0   0   0   0   
      0   0   0   0   0   
      0   0   0   0   0   
      0   0   0   0   0   
      0   0   0   0   0   
      0   0   0   0   0   
      0   0   0   0   0   
      0   0   0   0   0   
      0   0   0   0   0   
      0   0   0   0   0   
      0   0   0   0   0   
      0   0   0   0   0   
      0   0   0   0   0   
      0   0   0   0   0   
      0   0   0   0   0   
      0   0   0   0   0   
      0   0   0   0   0   
      0   0   0   0   0   
      0   0   0   0   0   
      0   0   0   0   0   
      0   0   0   0   0   
      0   0   0   0   0   
      0   0   0   0   0   
      0   0   0   0   0   
      0   0   0   0   0   
      0   0   0   0   0   
      0   0   0   0   0   
      0   0   0   0   0   
      0   0   0   0   0   
      0   0   0   0   0   
      0   0   0   0   0   
      0   0   0   0   0   
      0   0   0   0   0   
      0   0   0   0   0   
      0   0   0   0   0   
      0   0   0   0   0   
      0   0   0   0   0   
      0   0   0   0   0   
      0   0   0   0   0   
      0   0   0   0   0   
      0   0   0   0   0   
      0   0   0   0   0   
      0   0   0   0   0   
      0   0   0   0   0   
      0   0   0   0   0   
      0   0   0   0   0   
      0   0   0   0   0   
      0   0   0   0   0   
      0   0   0   0   0   
      0   0   0   0   0   
      0   0   0   0   0   
      0   0   0   0   0   
      0   0   0   0   0   
      0   0   0   0   0   
      0   0   0   0   0   
      0   0   0   0   0   
      0   0   0   0   0   
      0   0   0   0   0   
      0   0   0   0   0   
      0   0   0   0   0   
      0   0   0   0   0   
      0   0   0   0   0   
      0   0   0   0   0   
      0   0   0   0   0   
      0   0   0   0   0   
      0   0   0   0   0   
      0   0   0   0   0   
      0   0   0   0   0   
      0   0   0   0   0   
      0   0   0   0   0   
      0   0   0   0   0   
      0   0   0   0   0   
      0   0   0   0   0   
      0   0   0   0   0   
      0   0   0   0   0   
      0   0   0   0   0   
      0   0   0   0   0   
      0   0   0   0   0   
      0   0   0   0   0   
      0   0   0   0   0   
      0   0   0   0   0   
      0   0   0   0   0   
      0   0   0   0   0   
      0   0   0   0   0   
      0   0   0   0   0   
      0   0   0   0   0   
      0   0   0   0   0   
      0   0   0   0   0   
      0   0   0   0   0   
      0   0   0   0   0   
      0   0   0   0   0   
      0   0   0   0   0   
      0   0   0   0   0   
      0   0   0   0   0   
      0   0   0   0   0   
      0   0   0   0   0   
      0   0   0   0   0   
      0   0   0   0   0   
      0   0   0   0   0   
      0   0   0   0   0   
      0   0   0   0   0   
      0   0   0   0   0   
      0   0   0   0   0   
      0   0   0   0   0   
      0   0   0   0   0   
      0   0   0   0   0   
      0   0   0   0   0   
      0   0   0   0   0   
      0   0   0   0   0   
      0   0   0   0   0   
      0   0   0   0   0   
      0   0   0   0   0   
      0   0   0   0   0   
      0   0   0   0   0   
      0   0   0   0   0   
      0   0   0   0   0   
      0   0   0   0   0   
      0   0   0   0   0   
      0   0   0   0   0   
      0   0   0   0   0   
      0   0   0   0   0   
      0   0   0   0   0   
      0   0   0   0   0   
      0   0   0   0   0   
      0   0   0   0   0   
      0   0   0   0   0   
      0   0   0   0   0   
      0   0   0   0   0   
      0   0   0   0   0   
      0   0   0   0   0   
      0   0   0   0   0   
      0   0   0   0   0   
      0   0   0   0   0   
      0   0   0   0   0   
      0   0   0   0   0   
      0   0   0   0   0   
      0   0   0   0   0   
      0   0   0   0   0   
      0   0   0   0   0   
      0   0   0   0   0   
      0   0   0   0   0   
      0   0   0   0   0   
      0   0   0   0   0   
      0   0   0   0   0   
      0   0   0   0   0   
      0   0   0   0   0   
      0   0   0   0   0   
      0   0   0   0   0   
      0   0   0   0   0   
      0   0   0   0   0   
      0   0   0   0   0   
      0   0   0   0   0   
      0   0   0   0   0   
      0   0   0   0   0   
      0   0   0   0   0   
      0   0   0   0   0   
      0   0   0   0   0   
      0   0   0   0   0   
      0   0   0   0   0   
      0   0   0   0   0   
      0   0   0   0   0   
      0   0   0   0   0   
      0   0   0   0   0   
      0   0   0   0   0   
      0   0   0   0   0   
      0   0   0   0   0   
      0   0   0   0   0   
      0   0   0   0   0   
      0   0   0   0   0   
      0   0   0   0   0   
      0   0   0   0   0   
      0   0   0   0   0   
      0   0   0   0   0   
      0   0   0   0   0   
      0   0   0   0   0   
      0   0   0   0   0   
      0   0   0   0   0   
      0   0   0   0   0   
      0   0   0   0   0   
      0   0   0   0   0   
      0   0   0   0   0   
      0   0   0   0   0   
      0   0   0   0   0   
      0   0   0   0   0   
      0   0   0   0   0   
      0.0825544609196   0.0825616388645   0.0825831748662   0.0826190750931   0.0826693487069   
      0.0827340061405   0.0828130565991   0.0829065047006   0.0830143461473   0.0831365623055   
      0.0832731135542   0.0834239312633   0.0835889082626   0.0837678876876   0.083960650123   
      0.0841668990278   0.0843862445088   0.0846181856242   0.0848620915368   0.0851171820021   
      0.0853825078564   0.0856569323642   0.0859391144628   0.0862274951048   0.086520288012   
      0.0868154761985   0.0871108155863   0.0874038468887   0.0876919166879   0.0879722082679   
      0.0882417822988   0.0884976269326   0.0887367162835   0.0889560756811   0.0891528515417   
      0.089324383249   0.0894682741091   0.0895824582899   0.089665260678   0.0897154468081   
      0.0897322604252   0.0897154468081   0.089665260678   0.0895824582899   0.0894682741091   
      0.089324383249   0.0891528515417   0.0889560756811   0.0887367162835   0.0884976269326   
      0.0882417822988   0.0879722082679   0.0876919166879   0.0874038468887   0.0871108155863   
      0.0868154761985   0.086520288012   0.0862274951048   0.0859391144628   0.0856569323642   
      0.0853825078564   0.0851171820021   0.0848620915368   0.0846181856242   0.0843862445088   
      0.0841668990278   0.083960650123   0.0837678876876   0.0835889082626   0.0834239312633   
      0.0832731135542   0.0831365623055   0.0830143461473   0.0829065047006   0.0828130565991   
      0.0827340061405   0.0826693487069   0.0826190750931   0.0825831748662   0.0825616388645   
      0.0906276494284   0.0906378715809   0.0906685431659   0.0907196790633   0.0907913023764   
      0.0908834418215   0.0909961279446   0.0911293880372   0.0912832395946   0.0914576821318   
      0.0916526871575   0.091868186097   0.0921040559689   0.0923601026496   0.0926360416213   
      0.0929314761889   0.0932458732817   0.0935785371249   0.0939285812726   0.0942948997402   
      0.0946761382408   0.0950706668065   0.0954765553441   0.0958915538938   0.0963130795171   
      0.0967382117898   0.0971636987949   0.0975859752839   0.0980011942757   0.0984052728184   
      0.0987939519468   0.0991628700851   0.0995076483061   0.099823985031   0.100107757007   
      0.100355122788   0.100562624529   0.100727283713   0.10084668653   0.100919054923   
      0.10094329996   0.100919054923   0.10084668653   0.100727283713   0.100562624529   
      0.100355122788   0.100107757007   0.099823985031   0.0995076483061   0.0991628700851   
      0.0987939519468   0.0984052728184   0.0980011942757   0.0975859752839   0.0971636987949   
      0.0967382117898   0.0963130795171   0.0958915538938   0.0954765553441   0.0950706668065   
      0.0946761382408   0.0942948997402   0.0939285812726   0.0935785371249   0.0932458732817   
      0.0929314761889   0.0926360416213   0.0923601026496   0.0921040559689   0.091868186097   
      0.0916526871575   0.0914576821318   0.0912832395946   0.0911293880372   0.0909961279446   
      0.0908834418215   0.0907913023764   0.0907196790633   0.0906685431659   0.0906378715809   
      0.104282477142   0.10429906279   0.104348831379   0.104431816965   0.104548073333   
      0.104697669414   0.104880682661   0.105097190144   0.105347257119   0.10563092274   
      0.105948182598   0.106298967734   0.106683119812   0.107100362207   0.107550266856   
      0.108032216913   0.108545365454   0.1090885908   0.109660449373   0.110259127426   
      0.110882393431   0.111527553365   0.11219141156   0.112870240085   0.113559759864   
      0.114255136686   0.114950995093   0.115641452608   0.116320176041   0.11698046064   
      0.117615331681   0.118217666812   0.118780336186   0.119296356167   0.119759051386   
      0.120162219102   0.120500289392   0.120768474562   0.120962901451   0.121080720913   
      0.121120189668   0.121080720913   0.120962901451   0.120768474562   0.120500289392   
      0.120162219102   0.119759051386   0.119296356167   0.118780336186   0.118217666812   
      0.117615331681   0.11698046064   0.116320176041   0.115641452608   0.114950995093   
      0.114255136686   0.113559759864   0.112870240085   0.11219141156   0.111527553365   
      0.110882393431   0.110259127426   0.109660449373   0.1090885908   0.108545365454   
      0.108032216913   0.107550266856   0.107100362207   0.106683119812   0.106298967734   
      0.105948182598   0.10563092274   0.105347257119   0.105097190144   0.104880682661   
      0.104697669414   0.104548073333   0.104431816965   0.104348831379   0.10429906279   
      0.115358560076   0.115382030588   0.115452460654   0.115569904508   0.115734447983   
      0.115946201509   0.116205289982   0.116511839194   0.116865958425   0.117267718769   
      0.11771712671   0.118214092492   0.118758392871   0.119349627955   0.119987172041   
      0.120670118602   0.121397220002   0.122166822917   0.122976801052   0.12382448731   
      0.124706608234   0.125619224133   0.12655767884   0.127516563366   0.128489697845   
      0.12947013596   0.130450195458   0.131421517507   0.132375156359   0.133301699319   
      0.13419141534   0.135034428908   0.135820914272   0.13654130379   0.137186503114   
      0.137748105409   0.138218596605   0.138591543976   0.138861760965   0.139025442101   
      0.139080263046   0.139025442101   0.138861760965   0.138591543976   0.138218596605   
      0.137748105409   0.137186503114   0.13654130379   0.135820914272   0.135034428908   
      0.13419141534   0.133301699319   0.132375156359   0.131421517507   0.130450195458   
      0.12947013596   0.128489697845   0.127516563366   0.12655767884   0.125619224133   
      0.124706608234   0.12382448731   0.122976801052   0.122166822917   0.121397220002   
      0.120670118602   0.119987172041   0.119349627955   0.118758392871   0.118214092492   
      0.11771712671   0.117267718769   0.116865958425   0.116511839194   0.116205289982   
      0.115946201509   0.115734447983   0.115569904508   0.115452460654   0.115382030588   
      0.125668546753   0.125698956998   0.125790212053   0.125942382986   0.126155581852   
      0.126429951895   0.126765653387   0.127162844696   0.127621658078   0.128142169626   
      0.128724362791   0.129368084921   0.130072996379   0.130838511984   0.131663734833   
      0.132547382966   0.133487709906   0.134482420735   0.13552858614   0.136622557683   
      0.137759888306   0.13893526282   0.140142443609   0.141374237008   0.142622485643   
      0.143878091407   0.145131072687   0.14637065794   0.147585415886   0.14876342057   
      0.149892447485   0.150960195089   0.15195452455   0.152863709469   0.15367668687   
      0.154383300743   0.154974529963   0.155442693252   0.155781624995   0.155986816911   
      0.156055521821   0.155986816911   0.155781624995   0.155442693252   0.154974529963   
      0.154383300743   0.15367668687   0.152863709469   0.15195452455   0.150960195089   
      0.149892447485   0.14876342057   0.147585415886   0.14637065794   0.145131072687   
      0.143878091407   0.142622485643   0.141374237008   0.140142443609   0.13893526282   
      0.137759888306   0.136622557683   0.13552858614   0.134482420735   0.133487709906   
      0.132547382966   0.131663734833   0.130838511984   0.130072996379   0.129368084921   
      0.128724362791   0.128142169626   0.127621658078   0.127162844696   0.126765653387   
      0.126429951895   0.126155581852   0.125942382986   0.125790212053   0.125698956998   
      0.134569962804   0.134606467841   0.134716010533   0.134898671168   0.135154575296   
      0.135483881068   0.135886760975   0.136363377496   0.136913852062   0.137538226668   
      0.138236417492   0.139008159952   0.139852944792   0.140769945098   0.141757934578   
      0.142815198008   0.143939435482   0.14512766296   0.146376112533   0.147680136804   
      0.149034122634   0.150431420196   0.151864293656   0.153323899683   0.154800299429   
      0.156282508421   0.157758587116   0.159215772715   0.160640650467   0.162019360269   
      0.163337832193   0.164582042852   0.165738283401   0.166793429626   0.167735204833   
      0.168552427205   0.169235234565   0.169775281041   0.170165901627   0.170402242002   
      0.170481352012   0.170402242002   0.170165901627   0.169775281041   0.169235234565   
      0.168552427205   0.167735204833   0.166793429626   0.165738283401   0.164582042852   
      0.163337832193   0.162019360269   0.160640650467   0.159215772715   0.157758587116   
      0.156282508421   0.154800299429   0.153323899683   0.151864293656   0.150431420196   
      0.149034122634   0.147680136804   0.146376112533   0.14512766296   0.143939435482   
      0.142815198008   0.141757934578   0.140769945098   0.139852944792   0.139008159952   
      0.138236417492   0.137538226668   0.136913852062   0.136363377496   0.135886760975   
      0.135483881068   0.135154575296   0.134898671168   0.134716010533   0.134606467841   
      0.141576134279   0.141617395333   0.141741206927   0.141947651392   0.14223685599   
      0.142608977672   0.143064181144   0.143602609683   0.144224348047   0.14492937678   
      0.145717517262   0.146588366934   0.147541224453   0.148575004859   0.149688145444   
      0.150878503721   0.15214324979   0.1534787564   0.154880491109   0.156342915939   
      0.157859400837   0.159422157806   0.161022202687   0.162649351129   0.164292254166   
      0.16593847708   0.167574622912   0.169186499327   0.170759324752   0.172277967125   
      0.173727206536   0.175092011676   0.176357819543   0.177510808288   0.178538154234   
      0.179428265874   0.180170989662   0.180757784427   0.181181863022   0.18143830111   
      0.181524113799   0.18143830111   0.181181863022   0.180757784427   0.180170989662   
      0.179428265874   0.178538154234   0.177510808288   0.176357819543   0.175092011676   
      0.173727206536   0.172277967125   0.170759324752   0.169186499327   0.167574622912   
      0.16593847708   0.164292254166   0.162649351129   0.161022202687   0.159422157806   
      0.157859400837   0.156342915939   0.154880491109   0.1534787564   0.15214324979   
      0.150878503721   0.149688145444   0.148575004859   0.147541224453   0.146588366934   
      0.145717517262   0.14492937678   0.144224348047   0.143602609683   0.143064181144   
      0.142608977672   0.14223685599   0.141947651392   0.141741206927   0.141617395333   
      0.146353765596   0.146398221827   0.146531618408   0.146754035655   0.147065596192   
      0.147466447755   0.14795673849   0.148536584151   0.149206026504   0.149964982248   
      0.150813181784   0.151750097376   0.152774860537   0.153886168965   0.155082184028   
      0.156360420613   0.157717632203   0.159149695122   0.160651497084   0.162216836217   
      0.163838337568   0.165507394546   0.167214142584   0.168947471569   0.170695081997   
      0.172443587637   0.174178664725   0.175885244702   0.177547744504   0.179150325856   
      0.180677173136   0.182112778474   0.183442222837   0.184651442962   0.185727475846   
      0.186658674878   0.187434894156   0.188047639888   0.188490189563   0.188757680853   
      0.188847172697   0.188757680853   0.188490189563   0.188047639888   0.187434894156   
      0.186658674878   0.185727475846   0.184651442962   0.183442222837   0.182112778474   
      0.180677173136   0.179150325856   0.177547744504   0.175885244702   0.174178664725   
      0.172443587637   0.170695081997   0.168947471569   0.167214142584   0.165507394546   
      0.163838337568   0.162216836217   0.160651497084   0.159149695122   0.157717632203   
      0.156360420613   0.155082184028   0.153886168965   0.152774860537   0.151750097376   
      0.150813181784   0.149964982248   0.149206026504   0.148536584151   0.14795673849   
      0.147466447755   0.147065596192   0.146754035655   0.146531618408   0.146398221827   
      0.148762242074   0.148808290278   0.1489464621   0.149176835611   0.149499529001   
      0.149914682337   0.150422431375   0.151022872818   0.151716020334   0.152501750612   
      0.153379738851   0.154349383226   0.155409718288   0.156559317725   0.157796187679   
      0.159117652699   0.160520237462   0.161999548609   0.163550162201   0.165165523361   
      0.166837865475   0.168558156651   0.170316080849   0.172100060103   0.173897322481   
      0.175694017984   0.177475381584   0.179225939438   0.180929751261   0.182570679258   
      0.18413267237   0.185600053888   0.186957800941   0.18819180587   0.189289111663   
      0.190238116352   0.191028743934   0.191652581851   0.192102986874   0.19237516242   
      0.192466210664   0.19237516242   0.192102986874   0.191652581851   0.191028743934   
      0.190238116352   0.189289111663   0.18819180587   0.186957800941   0.185600053888   
      0.18413267237   0.182570679258   0.180929751261   0.179225939438   0.177475381584   
      0.175694017984   0.173897322481   0.172100060103   0.170316080849   0.168558156651   
      0.166837865475   0.165165523361   0.163550162201   0.161999548609   0.160520237462   
      0.159117652699   0.157796187679   0.156559317725   0.155409718288   0.154349383226   
      0.153379738851   0.152501750612   0.151716020334   0.151022872818   0.150422431375   
      0.149914682337   0.149499529001   0.149176835611   0.1489464621   0.148808290278   
      0.148762242074   0.148808290278   0.1489464621   0.149176835611   0.149499529001   
      0.149914682337   0.150422431375   0.151022872818   0.151716020334   0.152501750612   
      0.153379738851   0.154349383226   0.155409718288   0.156559317725   0.157796187679   
      0.159117652699   0.160520237462   0.161999548609   0.163550162201   0.165165523361   
      0.166837865475   0.168558156651   0.170316080849   0.172100060103   0.173897322481   
      0.175694017984   0.177475381584   0.179225939438   0.180929751261   0.182570679258   
      0.18413267237   0.185600053888   0.186957800941   0.18819180587   0.189289111663   
      0.190238116352   0.191028743934   0.191652581851   0.192102986874   0.19237516242   
      0.192466210664   0.19237516242   0.192102986874   0.191652581851   0.191028743934   
      0.190238116352   0.189289111663   0.18819180587   0.186957800941   0.185600053888   
      0.18413267237   0.182570679258   0.180929751261   0.179225939438   0.177475381584   
      0.175694017984   0.173897322481   0.172100060103   0.170316080849   0.168558156651   
      0.166837865475   0.165165523361   0.163550162201   0.161999548609   0.160520237462   
      0.159117652699   0.157796187679   0.156559317725   0.155409718288   0.154349383226   
      0.153379738851   0.152501750612   0.151716020334   0.151022872818   0.150422431375   
      0.149914682337   0.149499529001   0.149176835611   0.1489464621   0.148808290278   
      0.146353765596   0.146398221827   0.146531618408   0.146754035655   0.147065596192   
      0.147466447755   0.14795673849   0.148536584151   0.149206026504   0.149964982248   
      0.150813181784   0.151750097376   0.152774860537   0.153886168965   0.155082184028   
      0.156360420613   0.157717632203   0.159149695122   0.160651497084   0.162216836217   
      0.163838337568   0.165507394546   0.167214142584   0.168947471569   0.170695081997   
      0.172443587637   0.174178664725   0.175885244702   0.177547744504   0.179150325856   
      0.180677173136   0.182112778474   0.183442222837   0.184651442962   0.185727475846   
      0.186658674878   0.187434894156   0.188047639888   0.188490189563   0.188757680853   
      0.188847172697   0.188757680853   0.188490189563   0.188047639888   0.187434894156   
      0.186658674878   0.185727475846   0.184651442962   0.183442222837   0.182112778474   
      0.180677173136   0.179150325856   0.177547744504   0.175885244702   0.174178664725   
      0.172443587637   0.170695081997   0.168947471569   0.167214142584   0.165507394546   
      0.163838337568   0.162216836217   0.160651497084   0.159149695122   0.157717632203   
      0.156360420613   0.155082184028   0.153886168965   0.152774860537   0.151750097376   
      0.150813181784   0.149964982248   0.149206026504   0.148536584151   0.14795673849   
      0.147466447755   0.147065596192   0.146754035655   0.146531618408   0.146398221827   
      0.141576134279   0.141617395333   0.141741206927   0.141947651392   0.14223685599   
      0.142608977672   0.143064181144   0.143602609683   0.144224348047   0.14492937678   
      0.145717517262   0.146588366934   0.147541224453   0.148575004859   0.149688145444   
      0.150878503721   0.15214324979   0.1534787564   0.154880491109   0.156342915939   
      0.157859400837   0.159422157806   0.161022202687   0.162649351129   0.164292254166   
      0.16593847708   0.167574622912   0.169186499327   0.170759324752   0.172277967125   
      0.173727206536   0.175092011676   0.176357819543   0.177510808288   0.178538154234   
      0.179428265874   0.180170989662   0.180757784427   0.181181863022   0.18143830111   
      0.181524113799   0.18143830111   0.181181863022   0.180757784427   0.180170989662   
      0.179428265874   0.178538154234   0.177510808288   0.176357819543   0.175092011676   
      0.173727206536   0.172277967125   0.170759324752   0.169186499327   0.167574622912   
      0.16593847708   0.164292254166   0.162649351129   0.161022202687   0.159422157806   
      0.157859400837   0.156342915939   0.154880491109   0.1534787564   0.15214324979   
      0.150878503721   0.149688145444   0.148575004859   0.147541224453   0.146588366934   
      0.145717517262   0.14492937678   0.144224348047   0.143602609683   0.143064181144   
      0.142608977672   0.14223685599   0.141947651392   0.141741206927   0.141617395333   
      0.134569962804   0.134606467841   0.134716010533   0.134898671168   0.135154575296   
      0.135483881068   0.135886760975   0.136363377496   0.136913852062   0.137538226668   
      0.138236417492   0.139008159952   0.139852944792   0.140769945098   0.141757934578   
      0.142815198008   0.143939435482   0.14512766296   0.146376112533   0.147680136804   
      0.149034122634   0.150431420196   0.151864293656   0.153323899683   0.154800299429   
      0.156282508421   0.157758587116   0.159215772715   0.160640650467   0.162019360269   
      0.163337832193   0.164582042852   0.165738283401   0.166793429626   0.167735204833   
      0.168552427205   0.169235234565   0.169775281041   0.170165901627   0.170402242002   
      0.170481352012   0.170402242002   0.170165901627   0.169775281041   0.169235234565   
      0.168552427205   0.167735204833   0.166793429626   0.165738283401   0.164582042852   
      0.163337832193   0.162019360269   0.160640650467   0.159215772715   0.157758587116   
      0.156282508421   0.154800299429   0.153323899683   0.151864293656   0.150431420196   
      0.149034122634   0.147680136804   0.146376112533   0.14512766296   0.143939435482   
      0.142815198008   0.141757934578   0.140769945098   0.139852944792   0.139008159952   
      0.138236417492   0.137538226668   0.136913852062   0.136363377496   0.135886760975   
      0.135483881068   0.135154575296   0.134898671168   0.134716010533   0.134606467841   
      0.125668546753   0.125698956998   0.125790212053   0.125942382986   0.126155581852   
      0.126429951895   0.126765653387   0.127162844696   0.127621658078   0.128142169626   
      0.128724362791   0.129368084921   0.130072996379   0.130838511984   0.131663734833   
      0.132547382966   0.133487709906   0.134482420735   0.13552858614   0.136622557683   
      0.137759888306   0.13893526282   0.140142443609   0.141374237008   0.142622485643   
      0.143878091407   0.145131072687   0.14637065794   0.147585415886   0.14876342057   
      0.149892447485   0.150960195089   0.15195452455   0.152863709469   0.15367668687   
      0.154383300743   0.154974529963   0.155442693252   0.155781624995   0.155986816911   
      0.156055521821   0.155986816911   0.155781624995   0.155442693252   0.154974529963   
      0.154383300743   0.15367668687   0.152863709469   0.15195452455   0.150960195089   
      0.149892447485   0.14876342057   0.147585415886   0.14637065794   0.145131072687   
      0.143878091407   0.142622485643   0.141374237008   0.140142443609   0.13893526282   
      0.137759888306   0.136622557683   0.13552858614   0.134482420735   0.133487709906   
      0.132547382966   0.131663734833   0.130838511984   0.130072996379   0.129368084921   
      0.128724362791   0.128142169626   0.127621658078   0.127162844696   0.126765653387   