<?xml version="1.0"?>
<VTKFile type="ImageData" version="0.1" byte_order="LittleEndian">
  <ImageData WholeExtent="0 79 0 19 0 19" Origin="0 0 0" Spacing="1 1 1">
  <Piece Extent="0 79 0 19 0 19">
    <PointData Scalars="density">
       <DataArray type="Float32" Name="reddensity" NumberOfComponents="1" format="ascii">
      0   0   0   0   0   
      0   0   0   0   0   
      0   0   0   0   0   
      0   0   0   0   0   
      0   0   0   0   0   
      0   0   0   0   0   
      0   0   0   0   0   
      0   0   0   0   0   
      0   0   0   0   0   
      0   0   0   0   0   
      0   0   0   0   0   
      0   0   0   0   0   
      0   0   0   0   0   
      0   0   0   0   0   
      0   0   0   0   0   
      0   0   0   0   0   
      0   0   0   0   0   
      0   0   0   0   0   
      0   0   0   0   0   
      0   0   0   0   0   
      0   0   0   0   0   
      0   0   0   0   0   
      0   0   0   0   0   
      0   0   0   0   0   
      0   0   0   0   0   
      0   0   0   0   0   
      0   0   0   0   0   
      0   0   0   0   0   
      0   0   0   0   0   
      0   0   0   0   0   
      0   0   0   0   0   
      0   0   0   0   0   
      0   0   0   0   0   
      0   0   0   0   0   
      0   0   0   0   0   
      0   0   0   0   0   
      0   0   0   0   0   
      0   0   0   0   0   
      0   0   0   0   0   
      0   0   0   0   0   
      0   0   0   0   0   
      0   0   0   0   0   
      0   0   0   0   0   
      0   0   0   0   0   
      0   0   0   0   0   
      0   0   0   0   0   
      0   0   0   0   0   
      0   0   0   0   0   
      0   0   0   0   0   
      0   0   0   0   0   
      0   0   0   0   0   
      0   0   0   0   0   
      0   0   0   0   0   
      0   0   0   0   0   
      0   0   0   0   0   
      0   0   0   0   0   
      0   0   0   0   0   
      0   0   0   0   0   
      0   0   0   0   0   
      0   0   0   0   0   
      0   0   0   0   0   
      0   0   0   0   0   
      0   0   0   0   0   
      0   0   0   0   0   
      0   0   0   0   0   
      0   0   0   0   0   
      0   0   0   0   0   
      0   0   0   0   0   
      0   0   0   0   0   
      0   0   0   0   0   
      0   0   0   0   0   
      0   0   0   0   0   
      0   0   0   0   0   
      0   0   0   0   0   
      0   0   0   0   0   
      0   0   0   0   0   
      0   0   0   0   0   
      0   0   0   0   0   
      0   0   0   0   0   
      0   0   0   0   0   
      0   0   0   0   0   
      0   0   0   0   0   
      0   0   0   0   0   
      0   0   0   0   0   
      0   0   0   0   0   
      0   0   0   0   0   
      0   0   0   0   0   
      0   0   0   0   0   
      0   0   0   0   0   
      0   0   0   0   0   
      0   0   0   0   0   
      0   0   0   0   0   
      0   0   0   0   0   
      0   0   0   0   0   
      0   0   0   0   0   
      0   0   0   0   0   
      0   0   0   0   0   
      0   0   0   0   0   
      0   0   0   0   0   
      0   0   0   0   0   
      0   0   0   0   0   
      0   0   0   0   0   
      0   0   0   0   0   
      0   0   0   0   0   
      0   0   0   0   0   
      0   0   0   0   0   
      0   0   0   0   0   
      0   0   0   0   0   
      0   0   0   0   0   
      0   0   0   0   0   
      0   0   0   0   0   
      0   0   0   0   0   
      0   0   0   0   0   
      0   0   0   0   0   
      0   0   0   0   0   
      0   0   0   0   0   
      0   0   0   0   0   
      0   0   0   0   0   
      0   0   0   0   0   
      0   0   0   0   0   
      0   0   0   0   0   
      0   0   0   0   0   
      0   0   0   0   0   
      0   0   0   0   0   
      0   0   0   0   0   
      0   0   0   0   0   
      0   0   0   0   0   
      0   0   0   0   0   
      0   0   0   0   0   
      0   0   0   0   0   
      0   0   0   0   0   
      0   0   0   0   0   
      0   0   0   0   0   
      0   0   0   0   0   
      0   0   0   0   0   
      0   0   0   0   0   
      0   0   0   0   0   
      0   0   0   0   0   
      0   0   0   0   0   
      0   0   0   0   0   
      0   0   0   0   0   
      0   0   0   0   0   
      0   0   0   0   0   
      0   0   0   0   0   
      0   0   0   0   0   
      0   0   0   0   0   
      0   0   0   0   0   
      0   0   0   0   0   
      0   0   0   0   0   
      0   0   0   0   0   
      0   0   0   0   0   
      0   0   0   0   0   
      0   0   0   0   0   
      0   0   0   0   0   
      0   0   0   0   0   
      0   0   0   0   0   
      0   0   0   0   0   
      0   0   0   0   0   
      0   0   0   0   0   
      0   0   0   0   0   
      0   0   0   0   0   
      0   0   0   0   0   
      0   0   0   0   0   
      0   0   0   0   0   
      0   0   0   0   0   
      0   0   0   0   0   
      0   0   0   0   0   
      0   0   0   0   0   
      0   0   0   0   0   
      0   0   0   0   0   
      0   0   0   0   0   
      0   0   0   0   0   
      0   0   0   0   0   
      0   0   0   0   0   
      0   0   0   0   0   
      0   0   0   0   0   
      0   0   0   0   0   
      0   0   0   0   0   
      0   0   0   0   0   
      0   0   0   0   0   
      0   0   0   0   0   
      0   0   0   0   0   
      0   0   0   0   0   
      0   0   0   0   0   
      0   0   0   0   0   
      0   0   0   0   0   
      0   0   0   0   0   
      0   0   0   0   0   
      0   0   0   0   0   
      0   0   0   0   0   
      0   0   0   0   0   
      0   0   0   0   0   
      0   0   0   0   0   
      0   0   0   0   0   
      0   0   0   0   0   
      0   0   0   0   0   
      0   0   0   0   0   
      0   0   0   0   0   
      0   0   0   0   0   
      0   0   0   0   0   
      0   0   0   0   0   
      0   0   0   0   0   
      0   0   0   0   0   
      0   0   0   0   0   
      0   0   0   0   0   
      0   0   0   0   0   
      0   0   0   0   0   
      0   0   0   0   0   
      0   0   0   0   0   
      0   0   0   0   0   
      0   0   0   0   0   
      0   0   0   0   0   
      0   0   0   0   0   
      0   0   0   0   0   
      0   0   0   0   0   
      0   0   0   0   0   
      0   0   0   0   0   
      0   0   0   0   0   
      0   0   0   0   0   
      0   0   0   0   0   
      0   0   0   0   0   
      0   0   0   0   0   
      0   0   0   0   0   
      0   0   0   0   0   
      0   0   0   0   0   
      0   0   0   0   0   
      0   0   0   0   0   
      0   0   0   0   0   
      0   0   0   0   0   
      0   0   0   0   0   
      0   0   0   0   0   
      0   0   0   0   0   
      0   0   0   0   0   
      0   0   0   0   0   
      0   0   0   0   0   
      0   0   0   0   0   
      0   0   0   0   0   
      0   0   0   0   0   
      0   0   0   0   0   
      0   0   0   0   0   
      0   0   0   0   0   
      0   0   0   0   0   
      0   0   0   0   0   
      0   0   0   0   0   
      0   0   0   0   0   
      0   0   0   0   0   
      0   0   0   0   0   
      0   0   0   0   0   
      0   0   0   0   0   
      0   0   0   0   0   
      0   0   0   0   0   
      0   0   0   0   0   
      0   0   0   0   0   
      0   0   0   0   0   
      0   0   0   0   0   
      0   0   0   0   0   
      0   0   0   0   0   
      0   0   0   0   0   
      0   0   0   0   0   
      0   0   0   0   0   
      0   0   0   0   0   
      0   0   0   0   0   
      0   0   0   0   0   
      0   0   0   0   0   
      0   0   0   0   0   
      0   0   0   0   0   
      0   0   0   0   0   
      0   0   0   0   0   
      0   0   0   0   0   
      0   0   0   0   0   
      0   0   0   0   0   
      0   0   0   0   0   
      0   0   0   0   0   
      0   0   0   0   0   
      0   0   0   0   0   
      0   0   0   0   0   
      0   0   0   0   0   
      0   0   0   0   0   
      0   0   0   0   0   
      0   0   0   0   0   
      0   0   0   0   0   
      0   0   0   0   0   
      0   0   0   0   0   
      0   0   0   0   0   
      0   0   0   0   0   
      0   0   0   0   0   
      0   0   0   0   0   
      0   0   0   0   0   
      0   0   0   0   0   
      0   0   0   0   0   
      0   0   0   0   0   
      0   0   0   0   0   
      0   0   0   0   0   
      0   0   0   0   0   
      0   0   0   0   0   
      0   0   0   0   0   
      0   0   0   0   0   
      0   0   0   0   0   
      0   0   0   0   0   
      0   0   0   0   0   
      0   0   0   0   0   
      0   0   0   0   0   
      0   0   0   0   0   
      0   0   0   0   0   
      0   0   0   0   0   
      0   0   0   0   0   
      0   0   0   0   0   
      0   0   0   0   0   
      0   0   0   0   0   
      0   0   0   0   0   
      0   0   0   0   0   
      0   0   0   0   0   
      0   0   0   0   0   
      0   0   0   0   0   
      0   0   0   0   0   
      0   0   0   0   0   
      0   0   0   0   0   
      0   0   0   0   0   
      0   0   0   0   0   
      0   0   0   0   0   
      0   0   0   0   0   
      0   0   0   0   0   
      0   0   0   0   0   
      0   0   0   0   0   
      0   0   0   0   0   
      0   0   0   0   0   
      0   0   0   0   0   
      0   0   0   0   0   
      0   0   0   0   0   
      0   0   0   0   0   
      0   0   0   0   0   
      0   0   0   0   0   
      0   0   0   0   0   
      0   0   0   0   0   
      0   0   0   0   0   
      0   0   0   0   0   
      0.0847615848464   0.0847636425028   0.0847698063498   0.0847800490036   0.0847943247707   
      0.0848125695708   0.0848347008375   0.0848606174039   0.0848901993843   0.0849233080646   
      0.0849597858152   0.0849994560446   0.085042123211   0.0850875729138   0.0851355720852   
      0.0851858693053   0.0852381952637   0.0852922633911   0.0853477706815   0.0854043987281   
      0.0854618149884   0.0855196742963   0.0855776206293   0.0856352891392   0.0856923084428   
      0.0857483031697   0.0858028967491   0.0858557144159   0.0859063864062   0.0859545513024   
      0.0859998594862   0.0860419766439   0.08608058727   0.0861153981043   0.0861461414404   
      0.0861725782385   0.0861945009791   0.0862117361967   0.0862241466364   0.0862316329859   
      0.0862341351426   0.0862316329859   0.0862241466364   0.0862117361967   0.0861945009791   
      0.0861725782385   0.0861461414404   0.0861153981043   0.08608058727   0.0860419766439   
      0.0859998594862   0.0859545513024   0.0859063864062   0.0858557144159   0.0858028967491   
      0.0857483031697   0.0856923084428   0.0856352891392   0.0855776206293   0.0855196742963   
      0.0854618149884   0.0854043987281   0.0853477706815   0.0852922633911   0.0852381952637   
      0.0851858693053   0.0851355720852   0.0850875729138   0.085042123211   0.0849994560446   
      0.0849597858152   0.0849233080646   0.0848901993843   0.0848606174039   0.0848347008375   
      0.0848125695708   0.0847943247707   0.0847800490036   0.0847698063498   0.0847636425028   
      0.093809102509   0.0938120587166   0.0938209143244   0.0938356302609   0.093856141321   
      0.0938823560418   0.0939141565426   0.0939513983385   0.0939939101443   0.0940414936876   
      0.0940939235515   0.0941509470744   0.0942122843318   0.0942776282317   0.0943466447561   
      0.0944189733807   0.0944942277076   0.0945719963457   0.0946518440697   0.0947333132896   
      0.0948159258576   0.0948991852329   0.0949825790225   0.0950655819034   0.0951476589296   
      0.0952282692099   0.0953068699383   0.0953829207438   0.0954558883156   0.0955252512496   
      0.0955905050497   0.0956511672084   0.0957067822838   0.0957569268816   0.0958012144506   
      0.0958392997943   0.0958708832074   0.0958957141475   0.0959135943612   0.0959243803941   
      0.0959279854268   0.0959243803941   0.0959135943612   0.0958957141475   0.0958708832074   
      0.0958392997943   0.0958012144506   0.0957569268816   0.0957067822838   0.0956511672084   
      0.0955905050497   0.0955252512496   0.0954558883156   0.0953829207438   0.0953068699383   
      0.0952282692099   0.0951476589296   0.0950655819034   0.0949825790225   0.0948991852329   
      0.0948159258576   0.0947333132896   0.0946518440697   0.0945719963457   0.0944942277076   
      0.0944189733807   0.0943466447561   0.0942776282317   0.0942122843318   0.0941509470744   
      0.0940939235515   0.0940414936876   0.0939939101443   0.0939513983385   0.0939141565426   
      0.0938823560418   0.093856141321   0.0938356302609   0.0938209143244   0.0938120587166   
      0.109506629152   0.109511464572   0.109525949641   0.109550020752   0.109583571734   
      0.109626453638   0.109678474447   0.109739398742   0.109808947348   0.109886796986   
      0.109972579978   0.110065884042   0.110166252217   0.110273182981   0.110386130615   
      0.110504505849   0.11062767688   0.110754970787   0.110885675421   0.111019041804   
      0.111154287089   0.111290598115   0.111427135588   0.111563038882   0.111697431489   
      0.111829427065   0.111958136065   0.112082672901   0.112202163538   0.112315753466   
      0.112422615906   0.11252196015   0.112613039886   0.112695161362   0.112767691237   
      0.112830063967   0.112881788571   0.11292245463   0.112951737398   0.112969401902   
      0.112975305939   0.112969401902   0.112951737398   0.11292245463   0.112881788571   
      0.112830063967   0.112767691237   0.112695161362   0.112613039886   0.11252196015   
      0.112422615906   0.112315753466   0.112202163538   0.112082672901   0.111958136065   
      0.111829427065   0.111697431489   0.111563038882   0.111427135588   0.111290598115   
      0.111154287089   0.111019041804   0.110885675421   0.110754970787   0.11062767688   
      0.110504505849   0.110386130615   0.110273182981   0.110166252217   0.110065884042   
      0.109972579978   0.109886796986   0.109808947348   0.109739398742   0.109678474447   
      0.109626453638   0.109583571734   0.109550020752   0.109525949641   0.109511464572   
      0.122803986123   0.122810842137   0.122831380044   0.122865509364   0.122913079086   
      0.122973877345   0.123047631022   0.123134005268   0.123232603005   0.123342964443   
      0.123464566676   0.123596823406   0.123739084868   0.123890638038   0.124050707177   
      0.124218454823   0.12439298328   0.124573336707   0.12475850387   0.124947421631   
      0.125138979226   0.125332023396   0.125525364383   0.12571778282   0.125908037498   
      0.126094873986   0.126277034053   0.126453265791   0.126622334365   0.12678303323   
      0.126934195678   0.127074706527   0.127203513779   0.12731964002   0.127422193373   
      0.127510377769   0.127583502359   0.127640989839   0.127682383534   0.127707353078   
      0.127715698565   0.127707353078   0.127682383534   0.127640989839   0.127583502359   
      0.127510377769   0.127422193373   0.12731964002   0.127203513779   0.127074706527   
      0.126934195678   0.12678303323   0.126622334365   0.126453265791   0.126277034053   
      0.126094873986   0.125908037498   0.12571778282   0.125525364383   0.125332023396   
      0.125138979226   0.124947421631   0.12475850387   0.124573336707   0.12439298328   
      0.124218454823   0.124050707177   0.123890638038   0.123739084868   0.123596823406   
      0.123464566676   0.123342964443   0.123232603005   0.123134005268   0.123047631022   
      0.122973877345   0.122913079086   0.122865509364   0.122831380044   0.122810842137   
      0.135350037258   0.135358899658   0.135385447566   0.135429563024   0.135491049169   
      0.135569629846   0.135664949116   0.135776570686   0.135903977318   0.136046570269   
      0.13620366885   0.136374510168   0.13655824914   0.136753958884   0.136960631579   
      0.137177179892   0.13740243908   0.13763516987   0.137874062197   0.138117739899   
      0.138364766427   0.138613651638   0.138862859687   0.139110818046   0.139355927623   
      0.139596573928   0.139831139231   0.140058015575   0.140275618527   0.140482401482   
      0.140676870333   0.140857598272   0.141023240504   0.141172548591   0.141304384205   
      0.141417731988   0.141511711304   0.141585586629   0.141638776369   0.14167085992   
      0.141681582828   0.14167085992   0.141638776369   0.141585586629   0.141511711304   
      0.141417731988   0.141304384205   0.141172548591   0.141023240504   0.140857598272   
      0.140676870333   0.140482401482   0.140275618527   0.140058015575   0.139831139231   
      0.139596573928   0.139355927623   0.139110818046   0.138862859687   0.138613651638   
      0.138364766427   0.138117739899   0.137874062197   0.13763516987   0.13740243908   
      0.137177179892   0.136960631579   0.136753958884   0.13655824914   0.136374510168   
      0.13620366885   0.136046570269   0.135903977318   0.135776570686   0.135664949116   
      0.135569629846   0.135491049169   0.135429563024   0.135385447566   0.135358899658   
      0.146203631908   0.146214213946   0.146245912582   0.146298585288   0.14637199423   
      0.14646580585   0.14657959034   0.146712821044   0.146864873854   0.147035026675   
      0.147222459036   0.147426251955   0.147645388155   0.147878752745   0.148125134481   
      0.148383227726   0.148651635232   0.148928871849   0.149213369272   0.149503481913   
      0.149797493981   0.15009362781   0.150390053488   0.150684899756   0.150976266177   
      0.15126223649   0.151540893052   0.151810332236   0.152068680619   0.15231411174   
      0.152544863218   0.152759253956   0.152955701171   0.153132736955   0.153289024074   
      0.153423370736   0.153534744018   0.153622281731   0.153685302463   0.153723313608   
      0.153736017227   0.153723313608   0.153685302463   0.153622281731   0.153534744018   
      0.153423370736   0.153289024074   0.153132736955   0.152955701171   0.152759253956   
      0.152544863218   0.15231411174   0.152068680619   0.151810332236   0.151540893052   
      0.15126223649   0.150976266177   0.150684899756   0.150390053488   0.15009362781   
      0.149797493981   0.149503481913   0.149213369272   0.148928871849   0.148651635232   
      0.148383227726   0.148125134481   0.147878752745   0.147645388155   0.147426251955   
      0.147222459036   0.147035026675   0.146864873854   0.146712821044   0.14657959034   
      0.14646580585   0.14637199423   0.146298585288   0.146245912582   0.146214213946   
      0.154720105717   0.154731991323   0.154767594155   0.154826752167   0.154909194986   
      0.155014543514   0.155142309404   0.155291894495   0.155462590261   0.155653577361   
      0.155863925383   0.156092592897   0.156338427928   0.15660016897   0.156876446686   
      0.157165786398   0.157466611515   0.157777248017   0.158095930091   0.158420807029   
      0.158749951454   0.159081368924   0.159413008937   0.159742777327   0.160068549998   
      0.160388187925   0.160699553284   0.161000526574   0.161289024514   0.161563018511   
      0.161820553428   0.162059766384   0.162278905285   0.162476346787   0.162650613388   
      0.162800389336   0.162924535084   0.16302210001   0.163092333176   0.163134691917   
      0.163148848099   0.163134691917   0.163092333176   0.16302210001   0.162924535084   
      0.162800389336   0.162650613388   0.162476346787   0.162278905285   0.162059766384   
      0.161820553428   0.161563018511   0.161289024514   0.161000526574   0.160699553284   
      0.160388187925   0.160068549998   0.159742777327   0.159413008937   0.159081368924   
      0.158749951454   0.158420807029   0.158095930091   0.157777248017   0.157466611515   
      0.157165786398   0.156876446686   0.15660016897   0.156338427928   0.156092592897   
      0.155863925383   0.155653577361   0.155462590261   0.155291894495   0.155142309404   
      0.155014543514   0.154909194986   0.154826752167   0.154767594155   0.154731991323   
      0.160503111963   0.160515848645   0.160554000264   0.160617391452   0.16070572965   
      0.160818604724   0.160955488481   0.161115734151   0.161298575917   0.161503128563   
      0.161728387364   0.161973228321   0.162236408872   0.162516569206   0.162812234314   
      0.163121816922   0.163443621428   0.163775848963   0.164116603708   0.164463900529   
      0.164815674029   0.165169789038   0.165524052575   0.165876227236   0.166224045975   
      0.166565228157   0.166897496768   0.167218596595   0.167526313165   0.167818492223   
      0.16809305945   0.168348040161   0.168581578661   0.168791956957   0.168977612514   
      0.169137154747   0.169269379971   0.169373284541   0.169448075938   0.16949318162   
      0.169508255453   0.16949318162   0.169448075938   0.169373284541   0.169269379971   
      0.169137154747   0.168977612514   0.168791956957   0.168581578661   0.168348040161   
      0.16809305945   0.167818492223   0.167526313165   0.167218596595   0.166897496768   
      0.166565228157   0.166224045975   0.165876227236   0.165524052575   0.165169789038   
      0.164815674029   0.164463900529   0.164116603708   0.163775848963   0.163443621428   
      0.163121816922   0.162812234314   0.162516569206   0.162236408872   0.161973228321   
      0.161728387364   0.161503128563   0.161298575917   0.161115734151   0.160955488481   
      0.160818604724   0.16070572965   0.160617391452   0.160554000264   0.160515848645   
      0.163408990762   0.163422142576   0.163461537355   0.163526993023   0.163618205857   
      0.16373475011   0.163876077562   0.164041517037   0.164230273982   0.164441430186   
      0.164673943758   0.164926649478   0.165198259645   0.165487365564   0.165792439805   
      0.166111839375   0.166443809932   0.166786491171   0.167137923488   0.167496056013   
      0.167858756082   0.168223820191   0.168588986426   0.16895194836   0.169310370333   
      0.169661904029   0.170004206187   0.17033495728   0.170651880939   0.170952763873   
      0.171235476016   0.171497990608   0.171738403898   0.171954954161   0.172146039716   
      0.172310235644   0.172446308924   0.172553231718   0.172630192581   0.172676605391   
      0.172692115841   0.172676605391   0.172630192581   0.172553231718   0.172446308924   
      0.172310235644   0.172146039716   0.171954954161   0.171738403898   0.171497990608   
      0.171235476016   0.170952763873   0.170651880939   0.17033495728   0.170004206187   
      0.169661904029   0.169310370333   0.16895194836   0.168588986426   0.168223820191   
      0.167858756082   0.167496056013   0.167137923488   0.166786491171   0.166443809932   
      0.166111839375   0.165792439805   0.165487365564   0.165198259645   0.164926649478   
      0.164673943758   0.164441430186   0.164230273982   0.164041517037   0.163876077562   
      0.16373475011   0.163618205857   0.163526993023   0.163461537355   0.163422142576   
      0.163408990762   0.163422142576   0.163461537355   0.163526993023   0.163618205857   
      0.16373475011   0.163876077562   0.164041517037   0.164230273982   0.164441430186   
      0.164673943758   0.164926649478   0.165198259645   0.165487365564   0.165792439805   
      0.166111839375   0.166443809932   0.166786491171   0.167137923488   0.167496056013   
      0.167858756082   0.168223820191   0.168588986426   0.16895194836   0.169310370333   
      0.169661904029   0.170004206187   0.17033495728   0.170651880939   0.170952763873   
      0.171235476016   0.171497990608   0.171738403898   0.171954954161   0.172146039716   
      0.172310235644   0.172446308924   0.172553231718   0.172630192581   0.172676605391   
      0.172692115841   0.172676605391   0.172630192581   0.172553231718   0.172446308924   
      0.172310235644   0.172146039716   0.171954954161   0.171738403898   0.171497990608   
      0.171235476016   0.170952763873   0.170651880939   0.17033495728   0.170004206187   
      0.169661904029   0.169310370333   0.16895194836   0.168588986426   0.168223820191   
      0.167858756082   0.167496056013   0.167137923488   0.166786491171   0.166443809932   
      0.166111839375   0.165792439805   0.165487365564   0.165198259645   0.164926649478   
      0.164673943758   0.164441430186   0.164230273982   0.164041517037   0.163876077562   
      0.16373475011   0.163618205857   0.163526993023   0.163461537355   0.163422142576   
      0.160503111963   0.160515848645   0.160554000264   0.160617391452   0.16070572965   
      0.160818604724   0.160955488481   0.161115734151   0.161298575917   0.161503128563   
      0.161728387364   0.161973228321   0.162236408872   0.162516569206   0.162812234314   
      0.163121816922   0.163443621428   0.163775848963   0.164116603708   0.164463900529   
      0.164815674029   0.165169789038   0.165524052575   0.165876227236   0.166224045975   
      0.166565228157   0.166897496768   0.167218596595   0.167526313165   0.167818492223   
      0.16809305945   0.168348040161   0.168581578661   0.168791956957   0.168977612514   
      0.169137154747   0.169269379971   0.169373284541   0.169448075938   0.16949318162   
      0.169508255453   0.16949318162   0.169448075938   0.169373284541   0.169269379971   
      0.169137154747   0.168977612514   0.168791956957   0.168581578661   0.168348040161   
      0.16809305945   0.167818492223   0.167526313165   0.167218596595   0.166897496768   
      0.166565228157   0.166224045975   0.165876227236   0.165524052575   0.165169789038   
      0.164815674029   0.164463900529   0.164116603708   0.163775848963   0.163443621428   
      0.163121816922   0.162812234314   0.162516569206   0.162236408872   0.161973228321   
      0.161728387364   0.161503128563   0.161298575917   0.161115734151   0.160955488481   
      0.160818604724   0.16070572965   0.160617391452   0.160554000264   0.160515848645   
      0.154720105717   0.154731991323   0.154767594155   0.154826752167   0.154909194986   
      0.155014543514   0.155142309404   0.155291894495   0.155462590261   0.155653577361   
      0.155863925383   0.156092592897   0.156338427928   0.15660016897   0.156876446686   
      0.157165786398   0.157466611515   0.157777248017   0.158095930091   0.158420807029   
      0.158749951454   0.159081368924   0.159413008937   0.159742777327   0.160068549998   
      0.160388187925   0.160699553284   0.161000526574   0.161289024514   0.161563018511   
      0.161820553428   0.162059766384   0.162278905285   0.162476346787   0.162650613388   
      0.162800389336   0.162924535084   0.16302210001   0.163092333176   0.163134691917   
      0.163148848099   0.163134691917   0.163092333176   0.16302210001   0.162924535084   
      0.162800389336   0.162650613388   0.162476346787   0.162278905285   0.162059766384   
      0.161820553428   0.161563018511   0.161289024514   0.161000526574   0.160699553284   
      0.160388187925   0.160068549998   0.159742777327   0.159413008937   0.159081368924   
      0.158749951454   0.158420807029   0.158095930091   0.157777248017   0.157466611515   
      0.157165786398   0.156876446686   0.15660016897   0.156338427928   0.156092592897   
      0.155863925383   0.155653577361   0.155462590261   0.155291894495   0.155142309404   
      0.155014543514   0.154909194986   0.154826752167   0.154767594155   0.154731991323   
      0.146203631908   0.146214213946   0.146245912582   0.146298585288   0.14637199423   
      0.14646580585   0.14657959034   0.146712821044   0.146864873854   0.147035026675   
      0.147222459036   0.147426251955   0.147645388155   0.147878752745   0.148125134481   
      0.148383227726   0.148651635232   0.148928871849   0.149213369272   0.149503481913   
      0.149797493981   0.15009362781   0.150390053488   0.150684899756   0.150976266177   
      0.15126223649   0.151540893052   0.151810332236   0.152068680619   0.15231411174   
      0.152544863218   0.152759253956   0.152955701171   0.153132736955   0.153289024074   
      0.153423370736   0.153534744018   0.153622281731   0.153685302463   0.153723313608   
      0.153736017227   0.153723313608   0.153685302463   0.153622281731   0.153534744018   
      0.153423370736   0.153289024074   0.153132736955   0.152955701171   0.152759253956   
      0.152544863218   0.15231411174   0.152068680619   0.151810332236   0.151540893052   
      0.15126223649   0.150976266177   0.150684899756   0.150390053488   0.15009362781   
      0.149797493981   0.149503481913   0.149213369272   0.148928871849   0.148651635232   
      0.148383227726   0.148125134481   0.147878752745   0.147645388155   0.147426251955   
      0.147222459036   0.147035026675   0.146864873854   0.146712821044   0.14657959034   
      0.14646580585   0.14637199423   0.146298585288   0.146245912582   0.146214213946   
      0.135350037258   0.135358899658   0.135385447566   0.135429563024   0.135491049169   
      0.135569629846   0.135664949116   0.135776570686   0.135903977318   0.136046570269   
      0.13620366885   0.136374510168   0.13655824914   0.136753958884   0.136960631579   
      0.137177179892   0.13740243908   0.13763516987   0.137874062197   0.138117739899   
      0.138364766427   0.138613651638   0.138862859687   0.139110818046   0.139355927623   
      0.139596573928   0.139831139231   0.140058015575   0.140275618527   0.140482401482   
      0.140676870333   0.140857598272   0.141023240504   0.141172548591   0.141304384205   
      0.141417731988   0.141511711304   0.141585586629   0.141638776369   0.14167085992   
      0.141681582828   0.14167085992   0.141638776369   0.141585586629   0.141511711304   
      0.141417731988   0.141304384205   0.141172548591   0.141023240504   0.140857598272   
      0.140676870333   0.140482401482   0.140275618527   0.140058015575   0.139831139231   
      0.139596573928   0.139355927623   0.139110818046   0.138862859687   0.138613651638   
      0.138364766427   0.138117739899   0.137874062197   0.13763516987   0.13740243908   
      0.137177179892   0.136960631579   0.136753958884   0.13655824914   0.136374510168   
      0.13620366885   0.136046570269   0.135903977318   0.135776570686   0.135664949116   