<?xml version="1.0"?>
<VTKFile type="ImageData" version="0.1" byte_order="LittleEndian">
  <ImageData WholeExtent="0 79 0 19 0 19" Origin="0 0 0" Spacing="1 1 1">
  <Piece Extent="0 79 0 19 0 19">
    <PointData Scalars="density">
       <DataArray type="Float32" Name="reddensity" NumberOfComponents="1" format="ascii">
      0   0   0   0   0   
      0   0   0   0   0   
      0   0   0   0   0   
      0   0   0   0   0   
      0   0   0   0   0   
      0   0   0   0   0   
      0   0   0   0   0   
      0   0   0   0   0   
      0   0   0   0   0   
      0   0   0   0   0   
      0   0   0   0   0   
      0   0   0   0   0   
      0   0   0   0   0   
      0   0   0   0   0   
      0   0   0   0   0   
      0   0   0   0   0   
      0   0   0   0   0   
      0   0   0   0   0   
      0   0   0   0   0   
      0   0   0   0   0   
      0   0   0   0   0   
      0   0   0   0   0   
      0   0   0   0   0   
      0   0   0   0   0   
      0   0   0   0   0   
      0   0   0   0   0   
      0   0   0   0   0   
      0   0   0   0   0   
      0   0   0   0   0   
      0   0   0   0   0   
      0   0   0   0   0   
      0   0   0   0   0   
      0   0   0   0   0   
      0   0   0   0   0   
      0   0   0   0   0   
      0   0   0   0   0   
      0   0   0   0   0   
      0   0   0   0   0   
      0   0   0   0   0   
      0   0   0   0   0   
      0   0   0   0   0   
      0   0   0   0   0   
      0   0   0   0   0   
      0   0   0   0   0   
      0   0   0   0   0   
      0   0   0   0   0   
      0   0   0   0   0   
      0   0   0   0   0   
      0   0   0   0   0   
      0   0   0   0   0   
      0   0   0   0   0   
      0   0   0   0   0   
      0   0   0   0   0   
      0   0   0   0   0   
      0   0   0   0   0   
      0   0   0   0   0   
      0   0   0   0   0   
      0   0   0   0   0   
      0   0   0   0   0   
      0   0   0   0   0   
      0   0   0   0   0   
      0   0   0   0   0   
      0   0   0   0   0   
      0   0   0   0   0   
      0   0   0   0   0   
      0   0   0   0   0   
      0   0   0   0   0   
      0   0   0   0   0   
      0   0   0   0   0   
      0   0   0   0   0   
      0   0   0   0   0   
      0   0   0   0   0   
      0   0   0   0   0   
      0   0   0   0   0   
      0   0   0   0   0   
      0   0   0   0   0   
      0   0   0   0   0   
      0   0   0   0   0   
      0   0   0   0   0   
      0   0   0   0   0   
      0   0   0   0   0   
      0   0   0   0   0   
      0   0   0   0   0   
      0   0   0   0   0   
      0   0   0   0   0   
      0   0   0   0   0   
      0   0   0   0   0   
      0   0   0   0   0   
      0   0   0   0   0   
      0   0   0   0   0   
      0   0   0   0   0   
      0   0   0   0   0   
      0   0   0   0   0   
      0   0   0   0   0   
      0   0   0   0   0   
      0   0   0   0   0   
      0   0   0   0   0   
      0   0   0   0   0   
      0   0   0   0   0   
      0   0   0   0   0   
      0   0   0   0   0   
      0   0   0   0   0   
      0   0   0   0   0   
      0   0   0   0   0   
      0   0   0   0   0   
      0   0   0   0   0   
      0   0   0   0   0   
      0   0   0   0   0   
      0   0   0   0   0   
      0   0   0   0   0   
      0   0   0   0   0   
      0   0   0   0   0   
      0   0   0   0   0   
      0   0   0   0   0   
      0   0   0   0   0   
      0   0   0   0   0   
      0   0   0   0   0   
      0   0   0   0   0   
      0   0   0   0   0   
      0   0   0   0   0   
      0   0   0   0   0   
      0   0   0   0   0   
      0   0   0   0   0   
      0   0   0   0   0   
      0   0   0   0   0   
      0   0   0   0   0   
      0   0   0   0   0   
      0   0   0   0   0   
      0   0   0   0   0   
      0   0   0   0   0   
      0   0   0   0   0   
      0   0   0   0   0   
      0   0   0   0   0   
      0   0   0   0   0   
      0   0   0   0   0   
      0   0   0   0   0   
      0   0   0   0   0   
      0   0   0   0   0   
      0   0   0   0   0   
      0   0   0   0   0   
      0   0   0   0   0   
      0   0   0   0   0   
      0   0   0   0   0   
      0   0   0   0   0   
      0   0   0   0   0   
      0   0   0   0   0   
      0   0   0   0   0   
      0   0   0   0   0   
      0   0   0   0   0   
      0   0   0   0   0   
      0   0   0   0   0   
      0   0   0   0   0   
      0   0   0   0   0   
      0   0   0   0   0   
      0   0   0   0   0   
      0   0   0   0   0   
      0   0   0   0   0   
      0   0   0   0   0   
      0   0   0   0   0   
      0   0   0   0   0   
      0   0   0   0   0   
      0   0   0   0   0   
      0   0   0   0   0   
      0   0   0   0   0   
      0   0   0   0   0   
      0   0   0   0   0   
      0   0   0   0   0   
      0   0   0   0   0   
      0   0   0   0   0   
      0   0   0   0   0   
      0   0   0   0   0   
      0   0   0   0   0   
      0   0   0   0   0   
      0   0   0   0   0   
      0   0   0   0   0   
      0   0   0   0   0   
      0   0   0   0   0   
      0   0   0   0   0   
      0   0   0   0   0   
      0   0   0   0   0   
      0   0   0   0   0   
      0   0   0   0   0   
      0   0   0   0   0   
      0   0   0   0   0   
      0   0   0   0   0   
      0   0   0   0   0   
      0   0   0   0   0   
      0   0   0   0   0   
      0   0   0   0   0   
      0   0   0   0   0   
      0   0   0   0   0   
      0   0   0   0   0   
      0   0   0   0   0   
      0   0   0   0   0   
      0   0   0   0   0   
      0   0   0   0   0   
      0   0   0   0   0   
      0   0   0   0   0   
      0   0   0   0   0   
      0   0   0   0   0   
      0   0   0   0   0   
      0   0   0   0   0   
      0   0   0   0   0   
      0   0   0   0   0   
      0   0   0   0   0   
      0   0   0   0   0   
      0   0   0   0   0   
      0   0   0   0   0   
      0   0   0   0   0   
      0   0   0   0   0   
      0   0   0   0   0   
      0   0   0   0   0   
      0   0   0   0   0   
      0   0   0   0   0   
      0   0   0   0   0   
      0   0   0   0   0   
      0   0   0   0   0   
      0   0   0   0   0   
      0   0   0   0   0   
      0   0   0   0   0   
      0   0   0   0   0   
      0   0   0   0   0   
      0   0   0   0   0   
      0   0   0   0   0   
      0   0   0   0   0   
      0   0   0   0   0   
      0   0   0   0   0   
      0   0   0   0   0   
      0   0   0   0   0   
      0   0   0   0   0   
      0   0   0   0   0   
      0   0   0   0   0   
      0   0   0   0   0   
      0   0   0   0   0   
      0   0   0   0   0   
      0   0   0   0   0   
      0   0   0   0   0   
      0   0   0   0   0   
      0   0   0   0   0   
      0   0   0   0   0   
      0   0   0   0   0   
      0   0   0   0   0   
      0   0   0   0   0   
      0   0   0   0   0   
      0   0   0   0   0   
      0   0   0   0   0   
      0   0   0   0   0   
      0   0   0   0   0   
      0   0   0   0   0   
      0   0   0   0   0   
      0   0   0   0   0   
      0   0   0   0   0   
      0   0   0   0   0   
      0   0   0   0   0   
      0   0   0   0   0   
      0   0   0   0   0   
      0   0   0   0   0   
      0   0   0   0   0   
      0   0   0   0   0   
      0   0   0   0   0   
      0   0   0   0   0   
      0   0   0   0   0   
      0   0   0   0   0   
      0   0   0   0   0   
      0   0   0   0   0   
      0   0   0   0   0   
      0   0   0   0   0   
      0   0   0   0   0   
      0   0   0   0   0   
      0   0   0   0   0   
      0   0   0   0   0   
      0   0   0   0   0   
      0   0   0   0   0   
      0   0   0   0   0   
      0   0   0   0   0   
      0   0   0   0   0   
      0   0   0   0   0   
      0   0   0   0   0   
      0   0   0   0   0   
      0   0   0   0   0   
      0   0   0   0   0   
      0   0   0   0   0   
      0   0   0   0   0   
      0   0   0   0   0   
      0   0   0   0   0   
      0   0   0   0   0   
      0   0   0   0   0   
      0   0   0   0   0   
      0   0   0   0   0   
      0   0   0   0   0   
      0   0   0   0   0   
      0   0   0   0   0   
      0   0   0   0   0   
      0   0   0   0   0   
      0   0   0   0   0   
      0   0   0   0   0   
      0   0   0   0   0   
      0   0   0   0   0   
      0   0   0   0   0   
      0   0   0   0   0   
      0   0   0   0   0   
      0   0   0   0   0   
      0   0   0   0   0   
      0   0   0   0   0   
      0   0   0   0   0   
      0   0   0   0   0   
      0   0   0   0   0   
      0   0   0   0   0   
      0   0   0   0   0   
      0   0   0   0   0   
      0   0   0   0   0   
      0   0   0   0   0   
      0   0   0   0   0   
      0   0   0   0   0   
      0   0   0   0   0   
      0   0   0   0   0   
      0   0   0   0   0   
      0   0   0   0   0   
      0   0   0   0   0   
      0   0   0   0   0   
      0   0   0   0   0   
      0   0   0   0   0   
      0   0   0   0   0   
      0   0   0   0   0   
      0   0   0   0   0   
      0   0   0   0   0   
      0   0   0   0   0   
      0   0   0   0   0   
      0   0   0   0   0   
      0   0   0   0   0   
      0   0   0   0   0   
      0   0   0   0   0   
      0   0   0   0   0   
      0   0   0   0   0   
      0   0   0   0   0   
      0   0   0   0   0   
      0.0843923347845   0.0843953786731   0.0844044995255   0.084419664824   0.0844408201151   
      0.0844678886285   0.084500770757   0.0845393434084   0.0845834592458   0.0846329458384   
      0.0846876047473   0.0847472105775   0.0848115100323   0.0848802210106   0.0849530317951   
      0.0850296003826   0.0851095540138   0.0851924889624   0.0852779706471   0.0853655341307   
      0.085454685069   0.0855449011707   0.0856356342198   0.0857263127078   0.0858163451066   
      0.0859051238008   0.0859920296783   0.0860764373579   0.0861577210121   0.0862352607152   
      0.0863084492293   0.0863766991111   0.086439450008   0.0864961759895   0.0865463927487   
      0.0865896645028   0.0866256104147   0.0866539103685   0.0866743099384   0.0866866244124   
      0.0866907417534   0.0866866244124   0.0866743099384   0.0866539103685   0.0866256104147   
      0.0865896645028   0.0865463927487   0.0864961759895   0.086439450008   0.0863766991111   
      0.0863084492293   0.0862352607152   0.0861577210121   0.0860764373579   0.0859920296783   
      0.0859051238008   0.0858163451066   0.0857263127078   0.0856356342198   0.0855449011707   
      0.085454685069   0.0853655341307   0.0852779706471   0.0851924889624   0.0851095540138   
      0.0850296003826   0.0849530317951   0.0848802210106   0.0848115100323   0.0847472105775   
      0.0846876047473   0.0846329458384   0.0845834592458   0.0845393434084   0.084500770757   
      0.0844678886285   0.0844408201151   0.084419664824   0.0844044995255   0.0843953786731   
      0.0932772645894   0.0932816331161   0.0932947234023   0.0933164894484   0.0933468541981   
      0.0933857089625   0.0934329126314   0.0934882906907   0.0935516340707   0.0936226978569   
      0.0937011998995   0.0937868193708   0.0938791953199   0.0939779252893   0.0940825640611   
      0.0941926226108   0.0943075673519   0.0944268197604   0.0945497564735   0.0946757099547   
      0.0948039698198   0.0949337849114   0.0950643661981   0.0951948905664   0.0953245055508   
      0.0954523350262   0.0955774858635   0.095699055513   0.0958161404548   0.0959278454142   
      0.0960332932114   0.0961316350772   0.0962220612397   0.0963038115611   0.0963761859828   
      0.0964385545294   0.0964903666184   0.0965311594284   0.0965605650985   0.0965783165563   
      0.0965842518065   0.0965783165563   0.0965605650985   0.0965311594284   0.0964903666184   
      0.0964385545294   0.0963761859828   0.0963038115611   0.0962220612397   0.0961316350772   
      0.0960332932114   0.0959278454142   0.0958161404548   0.095699055513   0.0955774858635   
      0.0954523350262   0.0953245055508   0.0951948905664   0.0950643661981   0.0949337849114   
      0.0948039698198   0.0946757099547   0.0945497564735   0.0944268197604   0.0943075673519   
      0.0941926226108   0.0940825640611   0.0939779252893   0.0938791953199   0.0937868193708   
      0.0937011998995   0.0936226978569   0.0935516340707   0.0934882906907   0.0934329126314   
      0.0933857089625   0.0933468541981   0.0933164894484   0.0932947234023   0.0932816331161   
      0.108634344978   0.108641484866   0.108662879813   0.108698455473   0.108748087261   
      0.108811599368   0.108888763401   0.108979296697   0.109082860345   0.109199056967   
      0.109327428335   0.109467452887   0.109618543252   0.109780043865   0.109951228814   
      0.110131300033   0.110319385988   0.110514541005   0.110715745394   0.110921906533   
      0.111131861046   0.111344378245   0.111558164939   0.111771871725   0.111984100836   
      0.112193415572   0.112398351315   0.112597428059   0.112789164356   0.112972092488   
      0.11314477467   0.113305819981   0.113453901717   0.113587774792   0.113706292806   
      0.113808424368   0.11389326826   0.113960067064   0.114008218864   0.114037286712   
      0.1140470056   0.114037286712   0.114008218864   0.113960067064   0.11389326826   
      0.113808424368   0.113706292806   0.113587774792   0.113453901717   0.113305819981   
      0.11314477467   0.112972092488   0.112789164356   0.112597428059   0.112398351315   
      0.112193415572   0.111984100836   0.111771871725   0.111558164939   0.111344378245   
      0.111131861046   0.110921906533   0.110715745394   0.110514541005   0.110319385988   
      0.110131300033   0.109951228814   0.109780043865   0.109618543252   0.109467452887   
      0.109327428335   0.109199056967   0.109082860345   0.108979296697   0.108888763401   
      0.108811599368   0.108748087261   0.108698455473   0.108662879813   0.108641484866   
      0.121564084831   0.121574210844   0.121604553715   0.121655007658   0.121725395384   
      0.12181546668   0.121924896443   0.122053282246   0.12220014149   0.122364908225   
      0.122546929726   0.122745462968   0.122959671102   0.123188620106   0.123431275783   
      0.123686501288   0.123953055383   0.124229591654   0.12451465888   0.124806702805   
      0.125104069491   0.125405010479   0.125707689895   0.126010193663   0.126310540889   
      0.126606697461   0.126896591826   0.127178132856   0.12744922961   0.127707812758   
      0.127951857331   0.128179406417   0.128388595332   0.128577675792   0.128745039517   
      0.128889240756   0.129009017143   0.129103308396   0.129171272344   0.129212297874   
      0.12922601444   0.129212297874   0.129171272344   0.129103308396   0.129009017143   
      0.128889240756   0.128745039517   0.128577675792   0.128388595332   0.128179406417   
      0.127951857331   0.127707812758   0.12744922961   0.127178132856   0.126896591826   
      0.126606697461   0.126310540889   0.126010193663   0.125707689895   0.125405010479   
      0.125104069491   0.124806702805   0.12451465888   0.124229591654   0.123953055383   
      0.123686501288   0.123431275783   0.123188620106   0.122959671102   0.122745462968   
      0.122546929726   0.122364908225   0.12220014149   0.122053282246   0.121924896443   
      0.12181546668   0.121725395384   0.121655007658   0.121604553715   0.121574210844   
      0.133743558563   0.133756660692   0.133795920972   0.133861200712   0.133952267502   
      0.134068793361   0.134210352213   0.134376416745   0.134566354757   0.134779425096   
      0.135014773314   0.135271427207   0.135548292424   0.135844148332   0.136157644392   
      0.13648729727   0.136831488959   0.137188466187   0.137556341379   0.137933095466   
      0.138316582768   0.13870453822   0.139094587104   0.13948425745   0.139870995179   
      0.140252182004   0.140625156015   0.140987234787   0.141335740773   0.141668028627   
      0.141981514045   0.142273703617   0.142542225122   0.142784857645   0.142999560877   
      0.143184502924   0.143338085984   0.143458969264   0.14354608859   0.143598672196   
      0.143616252304   0.143598672196   0.14354608859   0.143458969264   0.143338085984   
      0.143184502924   0.142999560877   0.142784857645   0.142542225122   0.142273703617   
      0.141981514045   0.141668028627   0.141335740773   0.140987234787   0.140625156015   
      0.140252182004   0.139870995179   0.13948425745   0.139094587104   0.13870453822   
      0.138316582768   0.137933095466   0.137556341379   0.137188466187   0.136831488959   
      0.13648729727   0.136157644392   0.135844148332   0.135548292424   0.135271427207   
      0.135014773314   0.134779425096   0.134566354757   0.134376416745   0.134210352213   
      0.134068793361   0.133952267502   0.133861200712   0.133795920972   0.133756660692   
      0.144281353022   0.144297020173   0.144343965419   0.144422019683   0.144530899688   
      0.144670205782   0.144839418965   0.14503789722   0.145264871257   0.145519439795   
      0.145800564577   0.146107065284   0.146437614593   0.146790733632   0.147164788086   
      0.147557985292   0.14796837259   0.148393837295   0.148832108578   0.149280761589   
      0.149737224088   0.150198785851   0.150662611032   0.151125753631   0.151585176104   
      0.152037771114   0.152480386275   0.152909851668   0.153323009824   0.153716747724   
      0.154088030337   0.154433935072   0.154751686537   0.155038690867   0.155292568943   
      0.155511187757   0.15569268924   0.155835515897   0.155938432653   0.156000544406   
      0.15602130887   0.156000544406   0.155938432653   0.155835515897   0.15569268924   
      0.155511187757   0.155292568943   0.155038690867   0.154751686537   0.154433935072   
      0.154088030337   0.153716747724   0.153323009824   0.152909851668   0.152480386275   
      0.152037771114   0.151585176104   0.151125753631   0.150662611032   0.150198785851   
      0.149737224088   0.149280761589   0.148832108578   0.148393837295   0.14796837259   
      0.147557985292   0.147164788086   0.146790733632   0.146437614593   0.146107065284   
      0.145800564577   0.145519439795   0.145264871257   0.14503789722   0.144839418965   
      0.144670205782   0.144530899688   0.144422019683   0.144343965419   0.144297020173   
      0.152557144027   0.152574768308   0.152627576627   0.152715374923   0.152837838132   
      0.152994507787   0.153184788766   0.15340794528   0.153663096239   0.153949210161   
      0.154265099808   0.154609416803   0.154980646461   0.155377103139   0.155796926419   
      0.156238078453   0.156698342825   0.157175325274   0.157666456644   0.158168998362   
      0.158680050761   0.159196564479   0.159715355133   0.160233121363   0.160746466278   
      0.161251922223   0.161745978683   0.162225113051   0.162685823858   0.163124665981   
      0.163538287268   0.163923465915   0.164277147926   0.164596483898   0.164878864408   
      0.165121953271   0.165323717959   0.165482456545   0.165596820588   0.165665833468   
      0.165688903778   0.165665833468   0.165596820588   0.165482456545   0.165323717959   
      0.165121953271   0.164878864408   0.164596483898   0.164277147926   0.163923465915   
      0.163538287268   0.163124665981   0.162685823858   0.162225113051   0.161745978683   
      0.161251922223   0.160746466278   0.160233121363   0.159715355133   0.159196564479   
      0.158680050761   0.158168998362   0.157666456644   0.157175325274   0.156698342825   
      0.156238078453   0.155796926419   0.155377103139   0.154980646461   0.154609416803   
      0.154265099808   0.153949210161   0.153663096239   0.15340794528   0.153184788766   
      0.152994507787   0.152837838132   0.152715374923   0.152627576627   0.152574768308   
      0.158182225958   0.158201136238   0.158257796704   0.15835199572   0.158483378842   
      0.158651446307   0.15885554962   0.159094887367   0.159368500391   0.159675266521   
      0.160013895069   0.16038292134   0.160780701449   0.161205407757   0.161655025253   
      0.162127349266   0.162619984852   0.163130348234   0.163655670666   0.164193005036   
      0.164739235506   0.165291090437   0.165845158743   0.166397909788   0.166945716775   
      0.167484883546   0.168011674546   0.168522347624   0.16901318924   0.169480551545   
      0.169920890718   0.1703308059   0.170707077992   0.171046707588   0.1713469513   
      0.171605355749   0.171819788552   0.171988465666   0.17210997456   0.172183292732   
      0.172207801204   0.172183292732   0.17210997456   0.171988465666   0.171819788552   
      0.171605355749   0.1713469513   0.171046707588   0.170707077992   0.1703308059   
      0.169920890718   0.169480551545   0.16901318924   0.168522347624   0.168011674546   
      0.167484883546   0.166945716775   0.166397909788   0.165845158743   0.165291090437   
      0.164739235506   0.164193005036   0.163655670666   0.163130348234   0.162619984852   
      0.162127349266   0.161655025253   0.161205407757   0.160780701449   0.16038292134   
      0.160013895069   0.159675266521   0.159368500391   0.159094887367   0.15885554962   
      0.158651446307   0.158483378842   0.15835199572   0.158257796704   0.158201136238   
      0.161010795007   0.161030335568   0.161088883871   0.161186219242   0.161321972144   
      0.161495621606   0.16170649176   0.161953747571   0.162236389952   0.162553250431   
      0.162902985606   0.163284071653   0.163694799178   0.164133268745   0.164597387429   
      0.165084866762   0.165593222454   0.166119776268   0.166661660402   0.167215824724   
      0.167779047142   0.168347947333   0.168919003999   0.169488575699   0.170052925241   
      0.170608247477   0.171150700269   0.171676438254   0.172181648952   0.172662590681   
      0.173115631624   0.173537289384   0.173924270299   0.174273507763   0.174582198843   
      0.174847838458   0.175068250469   0.175241615071   0.175366491965   0.175441838845   
      0.175467024871   0.175441838845   0.175366491965   0.175241615071   0.175068250469   
      0.174847838458   0.174582198843   0.174273507763   0.173924270299   0.173537289384   
      0.173115631624   0.172662590681   0.172181648952   0.171676438254   0.171150700269   
      0.170608247477   0.170052925241   0.169488575699   0.168919003999   0.168347947333   
      0.167779047142   0.167215824724   0.166661660402   0.166119776268   0.165593222454   
      0.165084866762   0.164597387429   0.164133268745   0.163694799178   0.163284071653   
      0.162902985606   0.162553250431   0.162236389952   0.161953747571   0.16170649176   
      0.161495621606   0.161321972144   0.161186219242   0.161088883871   0.161030335568   
      0.161010795007   0.161030335568   0.161088883871   0.161186219242   0.161321972144   
      0.161495621606   0.16170649176   0.161953747571   0.162236389952   0.162553250431   
      0.162902985606   0.163284071653   0.163694799178   0.164133268745   0.164597387429   
      0.165084866762   0.165593222454   0.166119776268   0.166661660402   0.167215824724   
      0.167779047142   0.168347947333   0.168919003999   0.169488575699   0.170052925241   
      0.170608247477   0.171150700269   0.171676438254   0.172181648952   0.172662590681   
      0.173115631624   0.173537289384   0.173924270299   0.174273507763   0.174582198843   
      0.174847838458   0.175068250469   0.175241615071   0.175366491965   0.175441838845   
      0.175467024871   0.175441838845   0.175366491965   0.175241615071   0.175068250469   
      0.174847838458   0.174582198843   0.174273507763   0.173924270299   0.173537289384   
      0.173115631624   0.172662590681   0.172181648952   0.171676438254   0.171150700269   
      0.170608247477   0.170052925241   0.169488575699   0.168919003999   0.168347947333   
      0.167779047142   0.167215824724   0.166661660402   0.166119776268   0.165593222454   
      0.165084866762   0.164597387429   0.164133268745   0.163694799178   0.163284071653   
      0.162902985606   0.162553250431   0.162236389952   0.161953747571   0.16170649176   
      0.161495621606   0.161321972144   0.161186219242   0.161088883871   0.161030335568   
      0.158182225958   0.158201136238   0.158257796704   0.15835199572   0.158483378842   
      0.158651446307   0.15885554962   0.159094887367   0.159368500391   0.159675266521   
      0.160013895069   0.16038292134   0.160780701449   0.161205407757   0.161655025253   
      0.162127349266   0.162619984852   0.163130348234   0.163655670666   0.164193005036   
      0.164739235506   0.165291090437   0.165845158743   0.166397909788   0.166945716775   
      0.167484883546   0.168011674546   0.168522347624   0.16901318924   0.169480551545   
      0.169920890718   0.1703308059   0.170707077992   0.171046707588   0.1713469513   
      0.171605355749   0.171819788552   0.171988465666   0.17210997456   0.172183292732   
      0.172207801204   0.172183292732   0.17210997456   0.171988465666   0.171819788552   
      0.171605355749   0.1713469513   0.171046707588   0.170707077992   0.1703308059   
      0.169920890718   0.169480551545   0.16901318924   0.168522347624   0.168011674546   
      0.167484883546   0.166945716775   0.166397909788   0.165845158743   0.165291090437   
      0.164739235506   0.164193005036   0.163655670666   0.163130348234   0.162619984852   
      0.162127349266   0.161655025253   0.161205407757   0.160780701449   0.16038292134   
      0.160013895069   0.159675266521   0.159368500391   0.159094887367   0.15885554962   
      0.158651446307   0.158483378842   0.15835199572   0.158257796704   0.158201136238   
      0.152557144027   0.152574768308   0.152627576627   0.152715374923   0.152837838132   
      0.152994507787   0.153184788766   0.15340794528   0.153663096239   0.153949210161   
      0.154265099808   0.154609416803   0.154980646461   0.155377103139   0.155796926419   
      0.156238078453   0.156698342825   0.157175325274   0.157666456644   0.158168998362   
      0.158680050761   0.159196564479   0.159715355133   0.160233121363   0.160746466278   
      0.161251922223   0.161745978683   0.162225113051   0.162685823858   0.163124665981   
      0.163538287268   0.163923465915   0.164277147926   0.164596483898   0.164878864408   
      0.165121953271   0.165323717959   0.165482456545   0.165596820588   0.165665833468   
      0.165688903778   0.165665833468   0.165596820588   0.165482456545   0.165323717959   
      0.165121953271   0.164878864408   0.164596483898   0.164277147926   0.163923465915   
      0.163538287268   0.163124665981   0.162685823858   0.162225113051   0.161745978683   
      0.161251922223   0.160746466278   0.160233121363   0.159715355133   0.159196564479   
      0.158680050761   0.158168998362   0.157666456644   0.157175325274   0.156698342825   
      0.156238078453   0.155796926419   0.155377103139   0.154980646461   0.154609416803   
      0.154265099808   0.153949210161   0.153663096239   0.15340794528   0.153184788766   
      0.152994507787   0.152837838132   0.152715374923   0.152627576627   0.152574768308   
      0.144281353022   0.144297020173   0.144343965419   0.144422019683   0.144530899688   
      0.144670205782   0.144839418965   0.14503789722   0.145264871257   0.145519439795   
      0.145800564577   0.146107065284   0.146437614593   0.146790733632   0.147164788086   
      0.147557985292   0.14796837259   0.148393837295   0.148832108578   0.149280761589   
      0.149737224088   0.150198785851   0.150662611032   0.151125753631   0.151585176104   
      0.152037771114   0.152480386275   0.152909851668   0.153323009824   0.153716747724   
      0.154088030337   0.154433935072   0.154751686537   0.155038690867   0.155292568943   
      0.155511187757   0.15569268924   0.155835515897   0.155938432653   0.156000544406   
      0.15602130887   0.156000544406   0.155938432653   0.155835515897   0.15569268924   
      0.155511187757   0.155292568943   0.155038690867   0.154751686537   0.154433935072   
      0.154088030337   0.153716747724   0.153323009824   0.152909851668   0.152480386275   
      0.152037771114   0.151585176104   0.151125753631   0.150662611032   0.150198785851   
      0.149737224088   0.149280761589   0.148832108578   0.148393837295   0.14796837259   
      0.147557985292   0.147164788086   0.146790733632   0.146437614593   0.146107065284   
      0.145800564577   0.145519439795   0.145264871257   0.14503789722   0.144839418965   
      0.144670205782   0.144530899688   0.144422019683   0.144343965419   0.144297020173   
      0.133743558563   0.133756660692   0.133795920972   0.133861200712   0.133952267502   
      0.134068793361   0.134210352213   0.134376416745   0.134566354757   0.134779425096   
      0.135014773314   0.135271427207   0.135548292424   0.135844148332   0.136157644392   
      0.13648729727   0.136831488959   0.137188466187   0.137556341379   0.137933095466   
      0.138316582768   0.13870453822   0.139094587104   0.13948425745   0.139870995179   
      0.140252182004   0.140625156015   0.140987234787   0.141335740773   0.141668028627   
      0.141981514045   0.142273703617   0.142542225122   0.142784857645   0.142999560877   
      0.143184502924   0.143338085984   0.143458969264   0.14354608859   0.143598672196   
      0.143616252304   0.143598672196   0.14354608859   0.143458969264   0.143338085984   
      0.143184502924   0.142999560877   0.142784857645   0.142542225122   0.142273703617   
      0.141981514045   0.141668028627   0.141335740773   0.140987234787   0.140625156015   
      0.140252182004   0.139870995179   0.13948425745   0.139094587104   0.13870453822   
      0.138316582768   0.137933095466   0.137556341379   0.137188466187   0.136831488959   
      0.13648729727   0.136157644392   0.135844148332   0.135548292424   0.135271427207   
      0.135014773314   0.134779425096   0.134566354757   0.134376416745   0.134210352213   