<?xml version="1.0"?>
<VTKFile type="ImageData" version="0.1" byte_order="LittleEndian">
  <ImageData WholeExtent="0 79 0 19 0 19" Origin="0 0 0" Spacing="1 1 1">
  <Piece Extent="0 79 0 19 0 19">
    <PointData Scalars="density">
       <DataArray type="Float32" Name="reddensity" NumberOfComponents="1" format="ascii">
      0   0   0   0   0   
      0   0   0   0   0   
      0   0   0   0   0   
      0   0   0   0   0   
      0   0   0   0   0   
      0   0   0   0   0   
      0   0   0   0   0   
      0   0   0   0   0   
      0   0   0   0   0   
      0   0   0   0   0   
      0   0   0   0   0   
      0   0   0   0   0   
      0   0   0   0   0   
      0   0   0   0   0   
      0   0   0   0   0   
      0   0   0   0   0   
      0   0   0   0   0   
      0   0   0   0   0   
      0   0   0   0   0   
      0   0   0   0   0   
      0   0   0   0   0   
      0   0   0   0   0   
      0   0   0   0   0   
      0   0   0   0   0   
      0   0   0   0   0   
      0   0   0   0   0   
      0   0   0   0   0   
      0   0   0   0   0   
      0   0   0   0   0   
      0   0   0   0   0   
      0   0   0   0   0   
      0   0   0   0   0   
      0   0   0   0   0   
      0   0   0   0   0   
      0   0   0   0   0   
      0   0   0   0   0   
      0   0   0   0   0   
      0   0   0   0   0   
      0   0   0   0   0   
      0   0   0   0   0   
      0   0   0   0   0   
      0   0   0   0   0   
      0   0   0   0   0   
      0   0   0   0   0   
      0   0   0   0   0   
      0   0   0   0   0   
      0   0   0   0   0   
      0   0   0   0   0   
      0   0   0   0   0   
      0   0   0   0   0   
      0   0   0   0   0   
      0   0   0   0   0   
      0   0   0   0   0   
      0   0   0   0   0   
      0   0   0   0   0   
      0   0   0   0   0   
      0   0   0   0   0   
      0   0   0   0   0   
      0   0   0   0   0   
      0   0   0   0   0   
      0   0   0   0   0   
      0   0   0   0   0   
      0   0   0   0   0   
      0   0   0   0   0   
      0   0   0   0   0   
      0   0   0   0   0   
      0   0   0   0   0   
      0   0   0   0   0   
      0   0   0   0   0   
      0   0   0   0   0   
      0   0   0   0   0   
      0   0   0   0   0   
      0   0   0   0   0   
      0   0   0   0   0   
      0   0   0   0   0   
      0   0   0   0   0   
      0   0   0   0   0   
      0   0   0   0   0   
      0   0   0   0   0   
      0   0   0   0   0   
      0   0   0   0   0   
      0   0   0   0   0   
      0   0   0   0   0   
      0   0   0   0   0   
      0   0   0   0   0   
      0   0   0   0   0   
      0   0   0   0   0   
      0   0   0   0   0   
      0   0   0   0   0   
      0   0   0   0   0   
      0   0   0   0   0   
      0   0   0   0   0   
      0   0   0   0   0   
      0   0   0   0   0   
      0   0   0   0   0   
      0   0   0   0   0   
      0   0   0   0   0   
      0   0   0   0   0   
      0   0   0   0   0   
      0   0   0   0   0   
      0   0   0   0   0   
      0   0   0   0   0   
      0   0   0   0   0   
      0   0   0   0   0   
      0   0   0   0   0   
      0   0   0   0   0   
      0   0   0   0   0   
      0   0   0   0   0   
      0   0   0   0   0   
      0   0   0   0   0   
      0   0   0   0   0   
      0   0   0   0   0   
      0   0   0   0   0   
      0   0   0   0   0   
      0   0   0   0   0   
      0   0   0   0   0   
      0   0   0   0   0   
      0   0   0   0   0   
      0   0   0   0   0   
      0   0   0   0   0   
      0   0   0   0   0   
      0   0   0   0   0   
      0   0   0   0   0   
      0   0   0   0   0   
      0   0   0   0   0   
      0   0   0   0   0   
      0   0   0   0   0   
      0   0   0   0   0   
      0   0   0   0   0   
      0   0   0   0   0   
      0   0   0   0   0   
      0   0   0   0   0   
      0   0   0   0   0   
      0   0   0   0   0   
      0   0   0   0   0   
      0   0   0   0   0   
      0   0   0   0   0   
      0   0   0   0   0   
      0   0   0   0   0   
      0   0   0   0   0   
      0   0   0   0   0   
      0   0   0   0   0   
      0   0   0   0   0   
      0   0   0   0   0   
      0   0   0   0   0   
      0   0   0   0   0   
      0   0   0   0   0   
      0   0   0   0   0   
      0   0   0   0   0   
      0   0   0   0   0   
      0   0   0   0   0   
      0   0   0   0   0   
      0   0   0   0   0   
      0   0   0   0   0   
      0   0   0   0   0   
      0   0   0   0   0   
      0   0   0   0   0   
      0   0   0   0   0   
      0   0   0   0   0   
      0   0   0   0   0   
      0   0   0   0   0   
      0   0   0   0   0   
      0   0   0   0   0   
      0   0   0   0   0   
      0   0   0   0   0   
      0   0   0   0   0   
      0   0   0   0   0   
      0   0   0   0   0   
      0   0   0   0   0   
      0   0   0   0   0   
      0   0   0   0   0   
      0   0   0   0   0   
      0   0   0   0   0   
      0   0   0   0   0   
      0   0   0   0   0   
      0   0   0   0   0   
      0   0   0   0   0   
      0   0   0   0   0   
      0   0   0   0   0   
      0   0   0   0   0   
      0   0   0   0   0   
      0   0   0   0   0   
      0   0   0   0   0   
      0   0   0   0   0   
      0   0   0   0   0   
      0   0   0   0   0   
      0   0   0   0   0   
      0   0   0   0   0   
      0   0   0   0   0   
      0   0   0   0   0   
      0   0   0   0   0   
      0   0   0   0   0   
      0   0   0   0   0   
      0   0   0   0   0   
      0   0   0   0   0   
      0   0   0   0   0   
      0   0   0   0   0   
      0   0   0   0   0   
      0   0   0   0   0   
      0   0   0   0   0   
      0   0   0   0   0   
      0   0   0   0   0   
      0   0   0   0   0   
      0   0   0   0   0   
      0   0   0   0   0   
      0   0   0   0   0   
      0   0   0   0   0   
      0   0   0   0   0   
      0   0   0   0   0   
      0   0   0   0   0   
      0   0   0   0   0   
      0   0   0   0   0   
      0   0   0   0   0   
      0   0   0   0   0   
      0   0   0   0   0   
      0   0   0   0   0   
      0   0   0   0   0   
      0   0   0   0   0   
      0   0   0   0   0   
      0   0   0   0   0   
      0   0   0   0   0   
      0   0   0   0   0   
      0   0   0   0   0   
      0   0   0   0   0   
      0   0   0   0   0   
      0   0   0   0   0   
      0   0   0   0   0   
      0   0   0   0   0   
      0   0   0   0   0   
      0   0   0   0   0   
      0   0   0   0   0   
      0   0   0   0   0   
      0   0   0   0   0   
      0   0   0   0   0   
      0   0   0   0   0   
      0   0   0   0   0   
      0   0   0   0   0   
      0   0   0   0   0   
      0   0   0   0   0   
      0   0   0   0   0   
      0   0   0   0   0   
      0   0   0   0   0   
      0   0   0   0   0   
      0   0   0   0   0   
      0   0   0   0   0   
      0   0   0   0   0   
      0   0   0   0   0   
      0   0   0   0   0   
      0   0   0   0   0   
      0   0   0   0   0   
      0   0   0   0   0   
      0   0   0   0   0   
      0   0   0   0   0   
      0   0   0   0   0   
      0   0   0   0   0   
      0   0   0   0   0   
      0   0   0   0   0   
      0   0   0   0   0   
      0   0   0   0   0   
      0   0   0   0   0   
      0   0   0   0   0   
      0   0   0   0   0   
      0   0   0   0   0   
      0   0   0   0   0   
      0   0   0   0   0   
      0   0   0   0   0   
      0   0   0   0   0   
      0   0   0   0   0   
      0   0   0   0   0   
      0   0   0   0   0   
      0   0   0   0   0   
      0   0   0   0   0   
      0   0   0   0   0   
      0   0   0   0   0   
      0   0   0   0   0   
      0   0   0   0   0   
      0   0   0   0   0   
      0   0   0   0   0   
      0   0   0   0   0   
      0   0   0   0   0   
      0   0   0   0   0   
      0   0   0   0   0   
      0   0   0   0   0   
      0   0   0   0   0   
      0   0   0   0   0   
      0   0   0   0   0   
      0   0   0   0   0   
      0   0   0   0   0   
      0   0   0   0   0   
      0   0   0   0   0   
      0   0   0   0   0   
      0   0   0   0   0   
      0   0   0   0   0   
      0   0   0   0   0   
      0   0   0   0   0   
      0   0   0   0   0   
      0   0   0   0   0   
      0   0   0   0   0   
      0   0   0   0   0   
      0   0   0   0   0   
      0   0   0   0   0   
      0   0   0   0   0   
      0   0   0   0   0   
      0   0   0   0   0   
      0   0   0   0   0   
      0   0   0   0   0   
      0   0   0   0   0   
      0   0   0   0   0   
      0   0   0   0   0   
      0   0   0   0   0   
      0   0   0   0   0   
      0   0   0   0   0   
      0   0   0   0   0   
      0   0   0   0   0   
      0   0   0   0   0   
      0   0   0   0   0   
      0   0   0   0   0   
      0   0   0   0   0   
      0   0   0   0   0   
      0   0   0   0   0   
      0   0   0   0   0   
      0   0   0   0   0   
      0   0   0   0   0   
      0   0   0   0   0   
      0   0   0   0   0   
      0   0   0   0   0   
      0   0   0   0   0   
      0   0   0   0   0   
      0   0   0   0   0   
      0   0   0   0   0   
      0   0   0   0   0   
      0   0   0   0   0   
      0   0   0   0   0   
      0   0   0   0   0   
      0   0   0   0   0   
      0   0   0   0   0   
      0.0836898723586   0.0836946349972   0.0837089135772   0.0837326798712   0.0837658861034   
      0.0838084638519   0.0838603225128   0.0839213473266   0.0839913969704   0.0840703007275   
      0.0841578552499   0.0842538209422   0.0843579180086   0.08446982222   0.0845891604811   
      0.0847155062976   0.0848483752725   0.0849872207861   0.0851314300422   0.0852803206904   
      0.085433138258   0.0855890546398   0.0857471679064   0.0859065036882   0.0860660183768   
      0.0862246043554   0.086381097425   0.0865342865252   0.0866829257748   0.0868257487604   
      0.0869614849019   0.0870888776141   0.087206703882   0.0873137947619   0.0874090562463   
      0.0874914898571   0.0875602123054   0.0876144735421   0.0876536725577   0.0876773703455   
      0.0876852995384   0.0876773703455   0.0876536725577   0.0876144735421   0.0875602123054   
      0.0874914898571   0.0874090562463   0.0873137947619   0.087206703882   0.0870888776141   
      0.0869614849019   0.0868257487604   0.0866829257748   0.0865342865252   0.086381097425   
      0.0862246043554   0.0860660183768   0.0859065036882   0.0857471679064   0.0855890546398   
      0.085433138258   0.0852803206904   0.0851314300422   0.0849872207861   0.0848483752725   
      0.0847155062976   0.0845891604811   0.08446982222   0.0843579180086   0.0842538209422   
      0.0841578552499   0.0840703007275   0.0839913969704   0.0839213473266   0.0838603225128   
      0.0838084638519   0.0837658861034   0.0837326798712   0.0837089135772   0.0836946349972   
      0.0922649977031   0.0922718162675   0.0922922592743   0.0923262883337   0.0923738383648   
      0.0924348159466   0.0925090970102   0.0925965238741   0.0926969016299   0.0928099938938   
      0.0929355179517   0.0930731393375   0.0932224659115   0.0933830415226   0.0935543393754   
      0.0937357552528   0.0939266007854   0.0941260969985   0.094333368407   0.0945474379703   
      0.0947672232475   0.0949915341224   0.0952190724762   0.0954484341834   0.0956781137805   
      0.095906512112   0.0961319471888   0.0963526683954   0.0965668740724   0.0967727323591   
      0.0969684050361   0.0971520739537   0.0973219694767   0.097476400241   0.0976137833962   
      0.0977326744232   0.0978317955661   0.0979100619139   0.0979666042089   0.0980007875478   
      0.0980122252768   0.0980007875478   0.0979666042089   0.0979100619139   0.0978317955661   
      0.0977326744232   0.0976137833962   0.097476400241   0.0973219694767   0.0971520739537   
      0.0969684050361   0.0967727323591   0.0965668740724   0.0963526683954   0.0961319471888   
      0.095906512112   0.0956781137805   0.0954484341834   0.0952190724762   0.0949915341224   
      0.0947672232475   0.0945474379703   0.094333368407   0.0941260969985   0.0939266007854   
      0.0937357552528   0.0935543393754   0.0933830415226   0.0932224659115   0.0930731393375   
      0.0929355179517   0.0928099938938   0.0926969016299   0.0925965238741   0.0925090970102   
      0.0924348159466   0.0923738383648   0.0923262883337   0.0922922592743   0.0922718162675   
      0.106972738767   0.106983859541   0.107017202157   0.107072706919   0.107150272446   
      0.107249752833   0.107370953678   0.107513626988   0.107677464974   0.107862092758   
      0.108067060061   0.10829183193   0.108535778631   0.108798164857   0.109078138461   
      0.109374718983   0.109686786295   0.11001306977   0.110352138427   0.110702392586   
      0.111062057603   0.111429180299   0.111801628704   0.112177095723   0.112553107288   
      0.112927035467   0.113296116873   0.113657476568   0.114008157458   0.114345154921   
      0.114665456233   0.114966084038   0.115244142933   0.115496867988   0.115721673863   
      0.115916203058   0.116078371774   0.116206411854   0.11629890737   0.116354824569   
      0.116373534078   0.116354824569   0.11629890737   0.116206411854   0.116078371774   
      0.115916203058   0.115721673863   0.115496867988   0.115244142933   0.114966084038   
      0.114665456233   0.114345154921   0.114008157458   0.113657476568   0.113296116873   
      0.112927035467   0.112553107288   0.112177095723   0.111801628704   0.111429180299   
      0.111062057603   0.110702392586   0.110352138427   0.11001306977   0.109686786295   
      0.109374718983   0.109078138461   0.108798164857   0.108535778631   0.10829183193   
      0.108067060061   0.107862092758   0.107677464974   0.107513626988   0.107370953678   
      0.107249752833   0.107150272446   0.107072706919   0.107017202157   0.106983859541   
      0.11919807091   0.119213840357   0.119261120929   0.119339828479   0.11944981997   
      0.119590889285   0.119762761381   0.119965084783   0.120197422469   0.120459241191   
      0.120749899321   0.121068633352   0.121414543235   0.121786576815   0.12218351366   
      0.12260394873   0.123046276354   0.123508675128   0.123989094411   0.124485243173   
      0.124994582032   0.125514319328   0.126041412088   0.126572572712   0.127104282083   
      0.127632809696   0.128154241193   0.128664513447   0.129159457054   0.129634845804   
      0.130086452352   0.130510109013   0.130901772306   0.131257589616   0.131573966158   
      0.131847630291   0.132075695201   0.132255715012   0.132385733492   0.13246432376   
      0.132490617654   0.13246432376   0.132385733492   0.132255715012   0.132075695201   
      0.131847630291   0.131573966158   0.131257589616   0.130901772306   0.130510109013   
      0.130086452352   0.129634845804   0.129159457054   0.128664513447   0.128154241193   
      0.127632809696   0.127104282083   0.126572572712   0.126041412088   0.125514319328   
      0.124994582032   0.124485243173   0.123989094411   0.123508675128   0.123046276354   
      0.12260394873   0.12218351366   0.121786576815   0.121414543235   0.121068633352   
      0.120749899321   0.120459241191   0.120197422469   0.119965084783   0.119762761381   
      0.119590889285   0.11944981997   0.119339828479   0.119261120929   0.119213840357   
      0.130670760399   0.130691189417   0.130752439647   0.130854399487   0.130996879202   
      0.131179605325   0.131402212853   0.131664235259   0.131965092384   0.132304076301   
      0.132680335289   0.133092856122   0.133540444942   0.134021707089   0.134535026337   
      0.13507854414   0.135650139549   0.136247410629   0.13686765828   0.137507873464   
      0.138164728885   0.138834576208   0.139513449851   0.140197078297   0.140880903745   
      0.141560110658   0.142229663541   0.142884353934   0.143518856237   0.144127791627   
      0.144705798942   0.14524761105   0.145748134927   0.146202533427   0.146606306541   
      0.146955369907   0.1472461283   0.147475541971   0.147641183854   0.147741285957   
      0.147774773525   0.147741285957   0.147641183854   0.147475541971   0.1472461283   
      0.146955369907   0.146606306541   0.146202533427   0.145748134927   0.14524761105   
      0.144705798942   0.144127791627   0.143518856237   0.142884353934   0.142229663541   
      0.141560110658   0.140880903745   0.140197078297   0.139513449851   0.138834576208   
      0.138164728885   0.137507873464   0.13686765828   0.136247410629   0.135650139549   
      0.13507854414   0.134535026337   0.134021707089   0.133540444942   0.133092856122   
      0.132680335289   0.132304076301   0.131965092384   0.131664235259   0.131402212853   
      0.131179605325   0.130996879202   0.130854399487   0.130752439647   0.130691189417   
      0.140594390959   0.140618871877   0.140692268598   0.140814441647   0.14098515398   
      0.141204064118   0.141470716593   0.141784529747   0.142144780987   0.142550589633   
      0.143000897575   0.143494448002   0.144029762604   0.144605117722   0.145218520068   
      0.145867682757   0.146550002538   0.147262539223   0.14800199843   0.148764718844   
      0.149546665219   0.150343428339   0.151150233077   0.15196195553   0.152773150003   
      0.153578086302   0.154370797463   0.15514513764   0.155894849471   0.156613639809   
      0.157295262345   0.15793360527   0.158522781919   0.159057222085   0.159531761672   
      0.159941728314   0.160283020697   0.160552179506   0.160746448122   0.160863821518   
      0.16090308209   0.160863821518   0.160746448122   0.160552179506   0.160283020697   
      0.159941728314   0.159531761672   0.159057222085   0.158522781919   0.15793360527   
      0.157295262345   0.156613639809   0.155894849471   0.15514513764   0.154370797463   
      0.153578086302   0.152773150003   0.15196195553   0.151150233077   0.150343428339   
      0.149546665219   0.148764718844   0.14800199843   0.147262539223   0.146550002538   
      0.145867682757   0.145218520068   0.144605117722   0.144029762604   0.143494448002   
      0.143000897575   0.142550589633   0.142144780987   0.141784529747   0.141470716593   
      0.141204064118   0.14098515398   0.140814441647   0.140692268598   0.140618871877   
      0.148397541421   0.148425146615   0.148507907866   0.148645660598   0.148838125252   
      0.149084899417   0.149385446892   0.149739083749   0.150144961549   0.150602047892   
      0.151109104572   0.151664663708   0.152267002329   0.152914116024   0.1536036924   
      0.154333085254   0.155099290491   0.155898924955   0.156728209454   0.157582957296   
      0.158458569693   0.1593500393   0.160251963041   0.161158565162   0.16206373115   
      0.162961052804   0.163843884335   0.164705408929   0.16553871477   0.166336879078   
      0.167093058389   0.167800582967   0.168453053081   0.169044434752   0.169569152593   
      0.170022177464   0.170399106827   0.170696235927   0.1709106182   0.17104011359   
      0.171083423776   0.17104011359   0.1709106182   0.170696235927   0.170399106827   
      0.170022177464   0.169569152593   0.169044434752   0.168453053081   0.167800582967   
      0.167093058389   0.166336879078   0.16553871477   0.164705408929   0.163843884335   
      0.162961052804   0.16206373115   0.161158565162   0.160251963041   0.1593500393   
      0.158458569693   0.157582957296   0.156728209454   0.155898924955   0.155099290491   
      0.154333085254   0.1536036924   0.152914116024   0.152267002329   0.151664663708   
      0.151109104572   0.150602047892   0.150144961549   0.149739083749   0.149385446892   
      0.149084899417   0.148838125252   0.148645660598   0.148507907866   0.148425146615   
      0.153709595302   0.153739274739   0.15382825243   0.153976344792   0.15418324013   
      0.15444849008   0.154771497743   0.15515150259   0.15558756233   0.15607853195   
      0.156623040287   0.157219464526   0.157865903217   0.158560148493   0.159299658342   
      0.160081529949   0.160902475246   0.161758799957   0.16264638751   0.163560689211   
      0.164496722097   0.165449075736   0.166411929104   0.167379078397   0.168343976273   
      0.169299782645   0.17023942668   0.171155679183   0.172041234123   0.172888797613   
      0.173691182353   0.174441405277   0.175132786037   0.175759043923   0.176314390888   
      0.17679361855   0.177192177228   0.177506245405   0.177732788251   0.17786960416   
      0.177915358515   0.17786960416   0.177732788251   0.177506245405   0.177192177228   
      0.17679361855   0.176314390888   0.175759043923   0.175132786037   0.174441405277   
      0.173691182353   0.172888797613   0.172041234123   0.171155679183   0.17023942668   
      0.169299782645   0.168343976273   0.167379078397   0.166411929104   0.165449075736   
      0.164496722097   0.163560689211   0.16264638751   0.161758799957   0.160902475246   
      0.160081529949   0.159299658342   0.158560148493   0.157865903217   0.157219464526   
      0.156623040287   0.15607853195   0.15558756233   0.15515150259   0.154771497743   
      0.15444849008   0.15418324013   0.153976344792   0.15382825243   0.153739274739   
      0.156383873757   0.156414577633   0.156506625253   0.156659822795   0.156873841261   
      0.157148207594   0.157482292333   0.157875293958   0.158326220084   0.15883386579   
      0.15939678941   0.160013286285   0.160681361064   0.161398699299   0.16216263926   
      0.162970145006   0.163817781951   0.164701696226   0.165617599287   0.166560759182   
      0.167525999904   0.16850771012   0.169499862348   0.170496043396   0.171489496469   
      0.172473174968   0.173439807487   0.174381973081   0.175292185393   0.176162983853   
      0.176987029839   0.177757205477   0.178466712685   0.17910917005   0.179678705299   
      0.180170041292   0.180578573751   0.180900439245   0.181132572229   0.181272750241   
      0.181319626611   0.181272750241   0.181132572229   0.180900439245   0.180578573751   
      0.180170041292   0.179678705299   0.17910917005   0.178466712685   0.177757205477   
      0.176987029839   0.176162983853   0.175292185393   0.174381973081   0.173439807487   
      0.172473174968   0.171489496469   0.170496043396   0.169499862348   0.16850771012   
      0.167525999904   0.166560759182   0.165617599287   0.164701696226   0.163817781951   
      0.162970145006   0.16216263926   0.161398699299   0.160681361064   0.160013286285   
      0.15939678941   0.15883386579   0.158326220084   0.157875293958   0.157482292333   
      0.157148207594   0.156873841261   0.156659822795   0.156506625253   0.156414577633   
      0.156383873757   0.156414577633   0.156506625253   0.156659822795   0.156873841261   
      0.157148207594   0.157482292333   0.157875293958   0.158326220084   0.15883386579   
      0.15939678941   0.160013286285   0.160681361064   0.161398699299   0.16216263926   
      0.162970145006   0.163817781951   0.164701696226   0.165617599287   0.166560759182   
      0.167525999904   0.16850771012   0.169499862348   0.170496043396   0.171489496469   
      0.172473174968   0.173439807487   0.174381973081   0.175292185393   0.176162983853   
      0.176987029839   0.177757205477   0.178466712685   0.17910917005   0.179678705299   
      0.180170041292   0.180578573751   0.180900439245   0.181132572229   0.181272750241   
      0.181319626611   0.181272750241   0.181132572229   0.180900439245   0.180578573751   
      0.180170041292   0.179678705299   0.17910917005   0.178466712685   0.177757205477   
      0.176987029839   0.176162983853   0.175292185393   0.174381973081   0.173439807487   
      0.172473174968   0.171489496469   0.170496043396   0.169499862348   0.16850771012   
      0.167525999904   0.166560759182   0.165617599287   0.164701696226   0.163817781951   
      0.162970145006   0.16216263926   0.161398699299   0.160681361064   0.160013286285   
      0.15939678941   0.15883386579   0.158326220084   0.157875293958   0.157482292333   
      0.157148207594   0.156873841261   0.156659822795   0.156506625253   0.156414577633   
      0.153709595302   0.153739274739   0.15382825243   0.153976344792   0.15418324013   
      0.15444849008   0.154771497743   0.15515150259   0.15558756233   0.15607853195   
      0.156623040287   0.157219464526   0.157865903217   0.158560148493   0.159299658342   
      0.160081529949   0.160902475246   0.161758799957   0.16264638751   0.163560689211   
      0.164496722097   0.165449075736   0.166411929104   0.167379078397   0.168343976273   
      0.169299782645   0.17023942668   0.171155679183   0.172041234123   0.172888797613   
      0.173691182353   0.174441405277   0.175132786037   0.175759043923   0.176314390888   
      0.17679361855   0.177192177228   0.177506245405   0.177732788251   0.17786960416   
      0.177915358515   0.17786960416   0.177732788251   0.177506245405   0.177192177228   
      0.17679361855   0.176314390888   0.175759043923   0.175132786037   0.174441405277   
      0.173691182353   0.172888797613   0.172041234123   0.171155679183   0.17023942668   
      0.169299782645   0.168343976273   0.167379078397   0.166411929104   0.165449075736   
      0.164496722097   0.163560689211   0.16264638751   0.161758799957   0.160902475246   
      0.160081529949   0.159299658342   0.158560148493   0.157865903217   0.157219464526   
      0.156623040287   0.15607853195   0.15558756233   0.15515150259   0.154771497743   
      0.15444849008   0.15418324013   0.153976344792   0.15382825243   0.153739274739   
      0.148397541421   0.148425146615   0.148507907866   0.148645660598   0.148838125252   
      0.149084899417   0.149385446892   0.149739083749   0.150144961549   0.150602047892   
      0.151109104572   0.151664663708   0.152267002329   0.152914116024   0.1536036924   
      0.154333085254   0.155099290491   0.155898924955   0.156728209454   0.157582957296   
      0.158458569693   0.1593500393   0.160251963041   0.161158565162   0.16206373115   
      0.162961052804   0.163843884335   0.164705408929   0.16553871477   0.166336879078   
      0.167093058389   0.167800582967   0.168453053081   0.169044434752   0.169569152593   
      0.170022177464   0.170399106827   0.170696235927   0.1709106182   0.17104011359   
      0.171083423776   0.17104011359   0.1709106182   0.170696235927   0.170399106827   
      0.170022177464   0.169569152593   0.169044434752   0.168453053081   0.167800582967   
      0.167093058389   0.166336879078   0.16553871477   0.164705408929   0.163843884335   
      0.162961052804   0.16206373115   0.161158565162   0.160251963041   0.1593500393   
      0.158458569693   0.157582957296   0.156728209454   0.155898924955   0.155099290491   
      0.154333085254   0.1536036924   0.152914116024   0.152267002329   0.151664663708   
      0.151109104572   0.150602047892   0.150144961549   0.149739083749   0.149385446892   
      0.149084899417   0.148838125252   0.148645660598   0.148507907866   0.148425146615   
      0.140594390959   0.140618871877   0.140692268598   0.140814441647   0.14098515398   
      0.141204064118   0.141470716593   0.141784529747   0.142144780987   0.142550589633   
      0.143000897575   0.143494448002   0.144029762604   0.144605117722   0.145218520068   
      0.145867682757   0.146550002538   0.147262539223   0.14800199843   0.148764718844   
      0.149546665219   0.150343428339   0.151150233077   0.15196195553   0.152773150003   
      0.153578086302   0.154370797463   0.15514513764   0.155894849471   0.156613639809   
      0.157295262345   0.15793360527   0.158522781919   0.159057222085   0.159531761672   
      0.159941728314   0.160283020697   0.160552179506   0.160746448122   0.160863821518   
      0.16090308209   0.160863821518   0.160746448122   0.160552179506   0.160283020697   
      0.159941728314   0.159531761672   0.159057222085   0.158522781919   0.15793360527   
      0.157295262345   0.156613639809   0.155894849471   0.15514513764   0.154370797463   
      0.153578086302   0.152773150003   0.15196195553   0.151150233077   0.150343428339   
      0.149546665219   0.148764718844   0.14800199843   0.147262539223   0.146550002538   
      0.145867682757   0.145218520068   0.144605117722   0.144029762604   0.143494448002   
      0.143000897575   0.142550589633   0.142144780987   0.141784529747   0.141470716593   
      0.141204064118   0.14098515398   0.140814441647   0.140692268598   0.140618871877   
      0.130670760399   0.130691189417   0.130752439647   0.130854399487   0.130996879202   
      0.131179605325   0.131402212853   0.131664235259   0.131965092384   0.132304076301   
      0.132680335289   0.133092856122   0.133540444942   0.134021707089   0.134535026337   
      0.13507854414   0.135650139549   0.136247410629   0.13686765828   0.137507873464   
      0.138164728885   0.138834576208   0.139513449851   0.140197078297   0.140880903745   
      0.141560110658   0.142229663541   0.142884353934   0.143518856237   0.144127791627   
      0.144705798942   0.14524761105   0.145748134927   0.146202533427   0.146606306541   
      0.146955369907   0.1472461283   0.147475541971   0.147641183854   0.147741285957   
      0.147774773525   0.147741285957   0.147641183854   0.147475541971   0.1472461283   
      0.146955369907   0.146606306541   0.146202533427   0.145748134927   0.14524761105   
      0.144705798942   0.144127791627   0.143518856237   0.142884353934   0.142229663541   
      0.141560110658   0.140880903745   0.140197078297   0.139513449851   0.138834576208   
      0.138164728885   0.137507873464   0.13686765828   0.136247410629   0.135650139549   
      0.13507854414   0.134535026337   0.134021707089   0.133540444942   0.133092856122   
      0.132680335289   0.132304076301   0.131965092384   0.131664235259   0.131402212853   
      0.131179605325   0.130996879202   0.130854399487   0.130752439647   0.130691189417   