<?xml version="1.0"?>
<VTKFile type="ImageData" version="0.1" byte_order="LittleEndian">
  <ImageData WholeExtent="0 79 0 19 0 19" Origin="0 0 0" Spacing="1 1 1">
  <Piece Extent="0 79 0 19 0 19">
    <PointData Scalars="density">
       <DataArray type="Float32" Name="reddensity" NumberOfComponents="1" format="ascii">
      0   0   0   0   0   
      0   0   0   0   0   
      0   0   0   0   0   
      0   0   0   0   0   
      0   0   0   0   0   
      0   0   0   0   0   
      0   0   0   0   0   
      0   0   0   0   0   
      0   0   0   0   0   
      0   0   0   0   0   
      0   0   0   0   0   
      0   0   0   0   0   
      0   0   0   0   0   
      0   0   0   0   0   
      0   0   0   0   0   
      0   0   0   0   0   
      0   0   0   0   0   
      0   0   0   0   0   
      0   0   0   0   0   
      0   0   0   0   0   
      0   0   0   0   0   
      0   0   0   0   0   
      0   0   0   0   0   
      0   0   0   0   0   
      0   0   0   0   0   
      0   0   0   0   0   
      0   0   0   0   0   
      0   0   0   0   0   
      0   0   0   0   0   
      0   0   0   0   0   
      0   0   0   0   0   
      0   0   0   0   0   
      0   0   0   0   0   
      0   0   0   0   0   
      0   0   0   0   0   
      0   0   0   0   0   
      0   0   0   0   0   
      0   0   0   0   0   
      0   0   0   0   0   
      0   0   0   0   0   
      0   0   0   0   0   
      0   0   0   0   0   
      0   0   0   0   0   
      0   0   0   0   0   
      0   0   0   0   0   
      0   0   0   0   0   
      0   0   0   0   0   
      0   0   0   0   0   
      0   0   0   0   0   
      0   0   0   0   0   
      0   0   0   0   0   
      0   0   0   0   0   
      0   0   0   0   0   
      0   0   0   0   0   
      0   0   0   0   0   
      0   0   0   0   0   
      0   0   0   0   0   
      0   0   0   0   0   
      0   0   0   0   0   
      0   0   0   0   0   
      0   0   0   0   0   
      0   0   0   0   0   
      0   0   0   0   0   
      0   0   0   0   0   
      0   0   0   0   0   
      0   0   0   0   0   
      0   0   0   0   0   
      0   0   0   0   0   
      0   0   0   0   0   
      0   0   0   0   0   
      0   0   0   0   0   
      0   0   0   0   0   
      0   0   0   0   0   
      0   0   0   0   0   
      0   0   0   0   0   
      0   0   0   0   0   
      0   0   0   0   0   
      0   0   0   0   0   
      0   0   0   0   0   
      0   0   0   0   0   
      0   0   0   0   0   
      0   0   0   0   0   
      0   0   0   0   0   
      0   0   0   0   0   
      0   0   0   0   0   
      0   0   0   0   0   
      0   0   0   0   0   
      0   0   0   0   0   
      0   0   0   0   0   
      0   0   0   0   0   
      0   0   0   0   0   
      0   0   0   0   0   
      0   0   0   0   0   
      0   0   0   0   0   
      0   0   0   0   0   
      0   0   0   0   0   
      0   0   0   0   0   
      0   0   0   0   0   
      0   0   0   0   0   
      0   0   0   0   0   
      0   0   0   0   0   
      0   0   0   0   0   
      0   0   0   0   0   
      0   0   0   0   0   
      0   0   0   0   0   
      0   0   0   0   0   
      0   0   0   0   0   
      0   0   0   0   0   
      0   0   0   0   0   
      0   0   0   0   0   
      0   0   0   0   0   
      0   0   0   0   0   
      0   0   0   0   0   
      0   0   0   0   0   
      0   0   0   0   0   
      0   0   0   0   0   
      0   0   0   0   0   
      0   0   0   0   0   
      0   0   0   0   0   
      0   0   0   0   0   
      0   0   0   0   0   
      0   0   0   0   0   
      0   0   0   0   0   
      0   0   0   0   0   
      0   0   0   0   0   
      0   0   0   0   0   
      0   0   0   0   0   
      0   0   0   0   0   
      0   0   0   0   0   
      0   0   0   0   0   
      0   0   0   0   0   
      0   0   0   0   0   
      0   0   0   0   0   
      0   0   0   0   0   
      0   0   0   0   0   
      0   0   0   0   0   
      0   0   0   0   0   
      0   0   0   0   0   
      0   0   0   0   0   
      0   0   0   0   0   
      0   0   0   0   0   
      0   0   0   0   0   
      0   0   0   0   0   
      0   0   0   0   0   
      0   0   0   0   0   
      0   0   0   0   0   
      0   0   0   0   0   
      0   0   0   0   0   
      0   0   0   0   0   
      0   0   0   0   0   
      0   0   0   0   0   
      0   0   0   0   0   
      0   0   0   0   0   
      0   0   0   0   0   
      0   0   0   0   0   
      0   0   0   0   0   
      0   0   0   0   0   
      0   0   0   0   0   
      0   0   0   0   0   
      0   0   0   0   0   
      0   0   0   0   0   
      0   0   0   0   0   
      0   0   0   0   0   
      0   0   0   0   0   
      0   0   0   0   0   
      0   0   0   0   0   
      0   0   0   0   0   
      0   0   0   0   0   
      0   0   0   0   0   
      0   0   0   0   0   
      0   0   0   0   0   
      0   0   0   0   0   
      0   0   0   0   0   
      0   0   0   0   0   
      0   0   0   0   0   
      0   0   0   0   0   
      0   0   0   0   0   
      0   0   0   0   0   
      0   0   0   0   0   
      0   0   0   0   0   
      0   0   0   0   0   
      0   0   0   0   0   
      0   0   0   0   0   
      0   0   0   0   0   
      0   0   0   0   0   
      0   0   0   0   0   
      0   0   0   0   0   
      0   0   0   0   0   
      0   0   0   0   0   
      0   0   0   0   0   
      0   0   0   0   0   
      0   0   0   0   0   
      0   0   0   0   0   
      0   0   0   0   0   
      0   0   0   0   0   
      0   0   0   0   0   
      0   0   0   0   0   
      0   0   0   0   0   
      0   0   0   0   0   
      0   0   0   0   0   
      0   0   0   0   0   
      0   0   0   0   0   
      0   0   0   0   0   
      0   0   0   0   0   
      0   0   0   0   0   
      0   0   0   0   0   
      0   0   0   0   0   
      0   0   0   0   0   
      0   0   0   0   0   
      0   0   0   0   0   
      0   0   0   0   0   
      0   0   0   0   0   
      0   0   0   0   0   
      0   0   0   0   0   
      0   0   0   0   0   
      0   0   0   0   0   
      0   0   0   0   0   
      0   0   0   0   0   
      0   0   0   0   0   
      0   0   0   0   0   
      0   0   0   0   0   
      0   0   0   0   0   
      0   0   0   0   0   
      0   0   0   0   0   
      0   0   0   0   0   
      0   0   0   0   0   
      0   0   0   0   0   
      0   0   0   0   0   
      0   0   0   0   0   
      0   0   0   0   0   
      0   0   0   0   0   
      0   0   0   0   0   
      0   0   0   0   0   
      0   0   0   0   0   
      0   0   0   0   0   
      0   0   0   0   0   
      0   0   0   0   0   
      0   0   0   0   0   
      0   0   0   0   0   
      0   0   0   0   0   
      0   0   0   0   0   
      0   0   0   0   0   
      0   0   0   0   0   
      0   0   0   0   0   
      0   0   0   0   0   
      0   0   0   0   0   
      0   0   0   0   0   
      0   0   0   0   0   
      0   0   0   0   0   
      0   0   0   0   0   
      0   0   0   0   0   
      0   0   0   0   0   
      0   0   0   0   0   
      0   0   0   0   0   
      0   0   0   0   0   
      0   0   0   0   0   
      0   0   0   0   0   
      0   0   0   0   0   
      0   0   0   0   0   
      0   0   0   0   0   
      0   0   0   0   0   
      0   0   0   0   0   
      0   0   0   0   0   
      0   0   0   0   0   
      0   0   0   0   0   
      0   0   0   0   0   
      0   0   0   0   0   
      0   0   0   0   0   
      0   0   0   0   0   
      0   0   0   0   0   
      0   0   0   0   0   
      0   0   0   0   0   
      0   0   0   0   0   
      0   0   0   0   0   
      0   0   0   0   0   
      0   0   0   0   0   
      0   0   0   0   0   
      0   0   0   0   0   
      0   0   0   0   0   
      0   0   0   0   0   
      0   0   0   0   0   
      0   0   0   0   0   
      0   0   0   0   0   
      0   0   0   0   0   
      0   0   0   0   0   
      0   0   0   0   0   
      0   0   0   0   0   
      0   0   0   0   0   
      0   0   0   0   0   
      0   0   0   0   0   
      0   0   0   0   0   
      0   0   0   0   0   
      0   0   0   0   0   
      0   0   0   0   0   
      0   0   0   0   0   
      0   0   0   0   0   
      0   0   0   0   0   
      0   0   0   0   0   
      0   0   0   0   0   
      0   0   0   0   0   
      0   0   0   0   0   
      0   0   0   0   0   
      0   0   0   0   0   
      0   0   0   0   0   
      0   0   0   0   0   
      0   0   0   0   0   
      0   0   0   0   0   
      0   0   0   0   0   
      0   0   0   0   0   
      0   0   0   0   0   
      0   0   0   0   0   
      0   0   0   0   0   
      0   0   0   0   0   
      0   0   0   0   0   
      0   0   0   0   0   
      0   0   0   0   0   
      0   0   0   0   0   
      0   0   0   0   0   
      0   0   0   0   0   
      0   0   0   0   0   
      0   0   0   0   0   
      0   0   0   0   0   
      0   0   0   0   0   
      0   0   0   0   0   
      0   0   0   0   0   
      0   0   0   0   0   
      0   0   0   0   0   
      0   0   0   0   0   
      0   0   0   0   0   
      0   0   0   0   0   
      0   0   0   0   0   
      0   0   0   0   0   
      0   0   0   0   0   
      0   0   0   0   0   
      0   0   0   0   0   
      0   0   0   0   0   
      0.0837170320392   0.0837217317835   0.0837358215256   0.0837592725799   0.0837920364233   
      0.0838340436251   0.0838852023497   0.0839453964333   0.0840144830424   0.0840922899235   
      0.0841786122634   0.0842732091889   0.0843757999483   0.0844860598329   0.0846036159181   
      0.0847280427228   0.0848588579143   0.084995518209   0.0851374156477   0.085283874447   
      0.0854341486519   0.0855874208297   0.0857428020514   0.0858993334073   0.0860559892845   
      0.0862116826064   0.0863652721869   0.0865155722915   0.0866613644222   0.0868014112515   
      0.0869344725367   0.0870593227416   0.087174769992   0.0872796758998   0.0873729757097   
      0.0874536981647   0.087520984451   0.0875741055821   0.0876124776042   0.0876356740664   
      0.0876434352881   0.0876356740664   0.0876124776042   0.0875741055821   0.087520984451   
      0.0874536981647   0.0873729757097   0.0872796758998   0.087174769992   0.0870593227416   
      0.0869344725367   0.0868014112515   0.0866613644222   0.0865155722915   0.0863652721869   
      0.0862116826064   0.0860559892845   0.0858993334073   0.0857428020514   0.0855874208297   
      0.0854341486519   0.085283874447   0.0851374156477   0.084995518209   0.0848588579143   
      0.0847280427228   0.0846036159181   0.0844860598329   0.0843757999483   0.0842732091889   
      0.0841786122634   0.0840922899235   0.0840144830424   0.0839453964333   0.0838852023497   
      0.0838340436251   0.0837920364233   0.0837592725799   0.0837358215256   0.0837217317835   
      0.0923041468846   0.0923108761171   0.0923310508822   0.0923646320613   0.0924115533846   
      0.0924717198224   0.0925450053352   0.0926312499858   0.0927302564227   0.0928417857535   
      0.0929655528345   0.0931012210234   0.0932483964577   0.0934066219472   0.0935753706002   
      0.0937540393311   0.0939419424388   0.0941383054811   0.0943422597065   0.0945528373468   
      0.0947689680969   0.0949894771367   0.0952130850567   0.0954384100429   0.0956639726533   
      0.0958882034715   0.096109453855   0.0963260099037   0.0965361096627   0.0967379634433   
      0.0969297770055   0.0971097771956   0.0972762394919   0.0974275167761   0.0975620685385   
      0.0976784896421   0.0977755377268   0.0978521583303   0.097907506843   0.0979409665028   
      0.0979521617593   0.0979409665028   0.097907506843   0.0978521583303   0.0977755377268   
      0.0976784896421   0.0975620685385   0.0974275167761   0.0972762394919   0.0971097771956   
      0.0969297770055   0.0967379634433   0.0965361096627   0.0963260099037   0.096109453855   
      0.0958882034715   0.0956639726533   0.0954384100429   0.0952130850567   0.0949894771367   
      0.0947689680969   0.0945528373468   0.0943422597065   0.0941383054811   0.0939419424388   
      0.0937540393311   0.0935753706002   0.0934066219472   0.0932483964577   0.0931012210234   
      0.0929655528345   0.0928417857535   0.0927302564227   0.0926312499858   0.0925450053352   
      0.0924717198224   0.0924115533846   0.0923646320613   0.0923310508822   0.0923108761171   
      0.107037029261   0.1070480054   0.107080913668   0.107135693067   0.107212240085   
      0.107310405931   0.107429992664   0.107570748232   0.107732360432   0.107914449833   
      0.108116561712   0.10833815708   0.108578602916   0.108837161774   0.109112980952   
      0.109405081505   0.109712347412   0.110033515291   0.110367165111   0.110711712402   
      0.111065402524   0.111426307577   0.111792326547   0.112161189265   0.112530464707   
      0.112897574087   0.113259809052   0.113614355162   0.113958320623   0.11428877004   
      0.114602762732   0.114897394904   0.115169844749   0.115417419377   0.115637602256   
      0.115828099774   0.115986885462   0.116112240413   0.116202788524   0.116257525326   
      0.116275839359   0.116257525326   0.116202788524   0.116112240413   0.115986885462   
      0.115828099774   0.115637602256   0.115417419377   0.115169844749   0.114897394904   
      0.114602762732   0.11428877004   0.113958320623   0.113614355162   0.113259809052   
      0.112897574087   0.112530464707   0.112161189265   0.111792326547   0.111426307577   
      0.111065402524   0.110711712402   0.110367165111   0.110033515291   0.109712347412   
      0.109405081505   0.109112980952   0.108837161774   0.108578602916   0.10833815708   
      0.108116561712   0.107914449833   0.107732360432   0.107570748232   0.107429992664   
      0.107310405931   0.107212240085   0.107135693067   0.107080913668   0.1070480054   
      0.119289705736   0.119305270424   0.119351936069   0.11942961661   0.119538165881   
      0.119677373538   0.119846959358   0.120046565938   0.120275749836   0.120533971203   
      0.120820582011   0.121134812991   0.121475759488   0.121842366466   0.12223341299   
      0.12264749659   0.123083017991   0.123538166793   0.124010908756   0.124498975421   
      0.124999856873   0.125510798449   0.126028802218   0.126550634   0.127072836617   
      0.127591749906   0.128103537865   0.128604223045   0.129089728056   0.129555923736   
      0.12999868324   0.130413941008   0.130797755275   0.131146372556   0.131456292371   
      0.131724330325   0.131947677643   0.132123955301   0.132251261004   0.132328207464   
      0.13235395071   0.132328207464   0.132251261004   0.132123955301   0.131947677643   
      0.131724330325   0.131456292371   0.131146372556   0.130797755275   0.130413941008   
      0.12999868324   0.129555923736   0.129089728056   0.128604223045   0.128103537865   
      0.127591749906   0.127072836617   0.126550634   0.126028802218   0.125510798449   
      0.124999856873   0.124498975421   0.124010908756   0.123538166793   0.123083017991   
      0.12264749659   0.12223341299   0.121842366466   0.121475759488   0.121134812991   
      0.120820582011   0.120533971203   0.120275749836   0.120046565938   0.119846959358   
      0.119677373538   0.119538165881   0.11942961661   0.119351936069   0.119305270424   
      0.130789927478   0.130810090607   0.130870542331   0.130971168567   0.131111775537   
      0.131292084325   0.131511723275   0.13177021829   0.132066981072   0.132401295417   
      0.132772301706   0.133178979791   0.133620130555   0.134094356516   0.134600041914   
      0.135135332875   0.1356981183   0.136286012275   0.136896338889   0.137526120403   
      0.138172069798   0.138830588723   0.139497771827   0.140169418386   0.140841051973   
      0.141507948716   0.142165174432   0.142807630604   0.143430108831   0.144027353018   
      0.144594128217   0.145125294693   0.145615885508   0.146061185664   0.146456810716   
      0.146798782674   0.14708360104   0.147308306905   0.147470538219   0.147568574602   
      0.147601370342   0.147568574602   0.147470538219   0.147308306905   0.14708360104   
      0.146798782674   0.146456810716   0.146061185664   0.145615885508   0.145125294693   
      0.144594128217   0.144027353018   0.143430108831   0.142807630604   0.142165174432   
      0.141507948716   0.140841051973   0.140169418386   0.139497771827   0.138830588723   
      0.138172069798   0.137526120403   0.136896338889   0.136286012275   0.1356981183   
      0.135135332875   0.134600041914   0.134094356516   0.133620130555   0.133178979791   
      0.132772301706   0.132401295417   0.132066981072   0.13177021829   0.131511723275   
      0.131292084325   0.131111775537   0.130971168567   0.130870542331   0.130810090607   
      0.140737599019   0.140761759674   0.140834194628   0.140954761508   0.141123218563   
      0.14133921799   0.141602296648   0.141911864215   0.142267188888   0.142667380779   
      0.143111373212   0.143597902206   0.144125484519   0.14469239475   0.14529664209   
      0.145935947456   0.146607721868   0.14730904703   0.14803665921   0.148786937545   
      0.149555897964   0.150339193882   0.151132124745   0.151929653353   0.152726432681   
      0.153516842632   0.154295036814   0.155054999079   0.155790609139   0.156495716201   
      0.157164219175   0.157790151708   0.158367770025   0.158891641398   0.159356730957   
      0.159758484591   0.160092905745   0.160356624108   0.16054695438   0.160661943615   
      0.160700405917   0.160661943615   0.16054695438   0.160356624108   0.160092905745   
      0.159758484591   0.159356730957   0.158891641398   0.158367770025   0.157790151708   
      0.157164219175   0.156495716201   0.155790609139   0.155054999079   0.154295036814   
      0.153516842632   0.152726432681   0.151929653353   0.151132124745   0.150339193882   
      0.149555897964   0.148786937545   0.14803665921   0.14730904703   0.146607721868   
      0.145935947456   0.14529664209   0.14469239475   0.144125484519   0.143597902206   
      0.143111373212   0.142667380779   0.142267188888   0.141911864215   0.141602296648   
      0.14133921799   0.141123218563   0.140954761508   0.140834194628   0.140761759674   
      0.148559351393   0.148586593287   0.148668263574   0.14880419453   0.1489941015   
      0.149237575254   0.14953407137   0.149882896725   0.150283193238   0.150733919058   
      0.15123382748   0.151781443943   0.152375041597   0.153012616034   0.153691859919   
      0.154410138395   0.155164466261   0.155951488068   0.15676746233   0.157608251154   
      0.158469316542   0.159345724603   0.160232158749   0.161122942765   0.162012074346   
      0.162893269368   0.163760016751   0.164605643363   0.165423387998   0.166206483032   
      0.166948242057   0.167642151462   0.168281963796   0.168861790588   0.169376192364   
      0.16982026364   0.170189710855   0.17048092143   0.17069102239   0.170817927268   
      0.170860370309   0.170817927268   0.17069102239   0.17048092143   0.170189710855   
      0.16982026364   0.169376192364   0.168861790588   0.168281963796   0.167642151462   
      0.166948242057   0.166206483032   0.165423387998   0.164605643363   0.163760016751   
      0.162893269368   0.162012074346   0.161122942765   0.160232158749   0.159345724603   
      0.158469316542   0.157608251154   0.15676746233   0.155951488068   0.155164466261   
      0.154410138395   0.153691859919   0.153012616034   0.152375041597   0.151781443943   
      0.15123382748   0.150733919058   0.150283193238   0.149882896725   0.14953407137   
      0.149237575254   0.1489941015   0.14880419453   0.148668263574   0.148586593287   
      0.15388378922   0.153913076057   0.154000874842   0.154146998731   0.154351130751   
      0.154612815512   0.154931447693   0.155306257421   0.15573629273   0.156220399318   
      0.156757197938   0.15734505987   0.157982080994   0.15866605519   0.159394447869   
      0.160164370623   0.160972558115   0.161815348422   0.162688668166   0.163588023769   
      0.164508500157   0.165444768159   0.166391101624   0.167341405096   0.16828925249   
      0.169227936868   0.170150530982   0.171049957781   0.171919069686   0.172750735018   
      0.173537929655   0.174273831781   0.174951917417   0.175566054456   0.176110592946   
      0.176580449551   0.176971184336   0.177279068269   0.177501140134   0.177635251808   
      0.177680101126   0.177635251808   0.177501140134   0.177279068269   0.176971184336   
      0.176580449551   0.176110592946   0.175566054456   0.174951917417   0.174273831781   
      0.173537929655   0.172750735018   0.171919069686   0.171049957781   0.170150530982   
      0.169227936868   0.16828925249   0.167341405096   0.166391101624   0.165444768159   
      0.164508500157   0.163588023769   0.162688668166   0.161815348422   0.160972558115   
      0.160164370623   0.159394447869   0.15866605519   0.157982080994   0.15734505987   
      0.156757197938   0.156220399318   0.15573629273   0.155306257421   0.154931447693   
      0.154612815512   0.154351130751   0.154146998731   0.154000874842   0.153913076057   
      0.156564194763   0.156594491303   0.156685315794   0.156836471108   0.157047622919   
      0.157318291081   0.157647837671   0.158035451829   0.158480131578   0.158980662895   
      0.159535596381   0.160143222012   0.160801542552   0.161508246374   0.162260680569   
      0.163055825375   0.163890271096   0.164760198793   0.165661366107   0.166589099583   
      0.167538294862   0.168503425928   0.169478564471   0.170457410081   0.171433331693   
      0.172399420246   0.173348552108   0.174273462355   0.175166826544   0.176021349278   
      0.176829857537   0.177585396543   0.178281325868   0.178911413467   0.179469925473   
      0.179951709743   0.180352271439   0.180667839169   0.180895420522   0.1810328461   
      0.1810788014   0.1810328461   0.180895420522   0.180667839169   0.180352271439   
      0.179951709743   0.179469925473   0.178911413467   0.178281325868   0.177585396543   
      0.176829857537   0.176021349278   0.175166826544   0.174273462355   0.173348552108   
      0.172399420246   0.171433331693   0.170457410081   0.169478564471   0.168503425928   
      0.167538294862   0.166589099583   0.165661366107   0.164760198793   0.163890271096   
      0.163055825375   0.162260680569   0.161508246374   0.160801542552   0.160143222012   
      0.159535596381   0.158980662895   0.158480131578   0.158035451829   0.157647837671   
      0.157318291081   0.157047622919   0.156836471108   0.156685315794   0.156594491303   
      0.156564194763   0.156594491303   0.156685315794   0.156836471108   0.157047622919   
      0.157318291081   0.157647837671   0.158035451829   0.158480131578   0.158980662895   
      0.159535596381   0.160143222012   0.160801542552   0.161508246374   0.162260680569   
      0.163055825375   0.163890271096   0.164760198793   0.165661366107   0.166589099583   
      0.167538294862   0.168503425928   0.169478564471   0.170457410081   0.171433331693   
      0.172399420246   0.173348552108   0.174273462355   0.175166826544   0.176021349278   
      0.176829857537   0.177585396543   0.178281325868   0.178911413467   0.179469925473   
      0.179951709743   0.180352271439   0.180667839169   0.180895420522   0.1810328461   
      0.1810788014   0.1810328461   0.180895420522   0.180667839169   0.180352271439   
      0.179951709743   0.179469925473   0.178911413467   0.178281325868   0.177585396543   
      0.176829857537   0.176021349278   0.175166826544   0.174273462355   0.173348552108   
      0.172399420246   0.171433331693   0.170457410081   0.169478564471   0.168503425928   
      0.167538294862   0.166589099583   0.165661366107   0.164760198793   0.163890271096   
      0.163055825375   0.162260680569   0.161508246374   0.160801542552   0.160143222012   
      0.159535596381   0.158980662895   0.158480131578   0.158035451829   0.157647837671   
      0.157318291081   0.157047622919   0.156836471108   0.156685315794   0.156594491303   
      0.15388378922   0.153913076057   0.154000874842   0.154146998731   0.154351130751   
      0.154612815512   0.154931447693   0.155306257421   0.15573629273   0.156220399318   
      0.156757197938   0.15734505987   0.157982080994   0.15866605519   0.159394447869   
      0.160164370623   0.160972558115   0.161815348422   0.162688668166   0.163588023769   
      0.164508500157   0.165444768159   0.166391101624   0.167341405096   0.16828925249   
      0.169227936868   0.170150530982   0.171049957781   0.171919069686   0.172750735018   
      0.173537929655   0.174273831781   0.174951917417   0.175566054456   0.176110592946   
      0.176580449551   0.176971184336   0.177279068269   0.177501140134   0.177635251808   
      0.177680101126   0.177635251808   0.177501140134   0.177279068269   0.176971184336   
      0.176580449551   0.176110592946   0.175566054456   0.174951917417   0.174273831781   
      0.173537929655   0.172750735018   0.171919069686   0.171049957781   0.170150530982   
      0.169227936868   0.16828925249   0.167341405096   0.166391101624   0.165444768159   
      0.164508500157   0.163588023769   0.162688668166   0.161815348422   0.160972558115   
      0.160164370623   0.159394447869   0.15866605519   0.157982080994   0.15734505987   
      0.156757197938   0.156220399318   0.15573629273   0.155306257421   0.154931447693   
      0.154612815512   0.154351130751   0.154146998731   0.154000874842   0.153913076057   
      0.148559351393   0.148586593287   0.148668263574   0.14880419453   0.1489941015   
      0.149237575254   0.14953407137   0.149882896725   0.150283193238   0.150733919058   
      0.15123382748   0.151781443943   0.152375041597   0.153012616034   0.153691859919   
      0.154410138395   0.155164466261   0.155951488068   0.15676746233   0.157608251154   
      0.158469316542   0.159345724603   0.160232158749   0.161122942765   0.162012074346   
      0.162893269368   0.163760016751   0.164605643363   0.165423387998   0.166206483032   
      0.166948242057   0.167642151462   0.168281963796   0.168861790588   0.169376192364   
      0.16982026364   0.170189710855   0.17048092143   0.17069102239   0.170817927268   
      0.170860370309   0.170817927268   0.17069102239   0.17048092143   0.170189710855   
      0.16982026364   0.169376192364   0.168861790588   0.168281963796   0.167642151462   
      0.166948242057   0.166206483032   0.165423387998   0.164605643363   0.163760016751   
      0.162893269368   0.162012074346   0.161122942765   0.160232158749   0.159345724603   
      0.158469316542   0.157608251154   0.15676746233   0.155951488068   0.155164466261   
      0.154410138395   0.153691859919   0.153012616034   0.152375041597   0.151781443943   
      0.15123382748   0.150733919058   0.150283193238   0.149882896725   0.14953407137   
      0.149237575254   0.1489941015   0.14880419453   0.148668263574   0.148586593287   
      0.140737599019   0.140761759674   0.140834194628   0.140954761508   0.141123218563   
      0.14133921799   0.141602296648   0.141911864215   0.142267188888   0.142667380779   
      0.143111373212   0.143597902206   0.144125484519   0.14469239475   0.14529664209   
      0.145935947456   0.146607721868   0.14730904703   0.14803665921   0.148786937545   
      0.149555897964   0.150339193882   0.151132124745   0.151929653353   0.152726432681   
      0.153516842632   0.154295036814   0.155054999079   0.155790609139   0.156495716201   
      0.157164219175   0.157790151708   0.158367770025   0.158891641398   0.159356730957   
      0.159758484591   0.160092905745   0.160356624108   0.16054695438   0.160661943615   
      0.160700405917   0.160661943615   0.16054695438   0.160356624108   0.160092905745   
      0.159758484591   0.159356730957   0.158891641398   0.158367770025   0.157790151708   
      0.157164219175   0.156495716201   0.155790609139   0.155054999079   0.154295036814   
      0.153516842632   0.152726432681   0.151929653353   0.151132124745   0.150339193882   
      0.149555897964   0.148786937545   0.14803665921   0.14730904703   0.146607721868   
      0.145935947456   0.14529664209   0.14469239475   0.144125484519   0.143597902206   
      0.143111373212   0.142667380779   0.142267188888   0.141911864215   0.141602296648   
      0.14133921799   0.141123218563   0.140954761508   0.140834194628   0.140761759674   
      0.130789927478   0.130810090607   0.130870542331   0.130971168567   0.131111775537   
      0.131292084325   0.131511723275   0.13177021829   0.132066981072   0.132401295417   
      0.132772301706   0.133178979791   0.133620130555   0.134094356516   0.134600041914   
      0.135135332875   0.1356981183   0.136286012275   0.136896338889   0.137526120403   
      0.138172069798   0.138830588723   0.139497771827   0.140169418386   0.140841051973   
      0.141507948716   0.142165174432   0.142807630604   0.143430108831   0.144027353018   
      0.144594128217   0.145125294693   0.145615885508   0.146061185664   0.146456810716   
      0.146798782674   0.14708360104   0.147308306905   0.147470538219   0.147568574602   
      0.147601370342   0.147568574602   0.147470538219   0.147308306905   0.14708360104   
      0.146798782674   0.146456810716   0.146061185664   0.145615885508   0.145125294693   
      0.144594128217   0.144027353018   0.143430108831   0.142807630604   0.142165174432   
      0.141507948716   0.140841051973   0.140169418386   0.139497771827   0.138830588723   
      0.138172069798   0.137526120403   0.136896338889   0.136286012275   0.1356981183   
      0.135135332875   0.134600041914   0.134094356516   0.133620130555   0.133178979791   
      0.132772301706   0.132401295417   0.132066981072   0.13177021829   0.131511723275   