<?xml version="1.0"?>
<VTKFile type="ImageData" version="0.1" byte_order="LittleEndian">
  <ImageData WholeExtent="0 79 0 19 0 19" Origin="0 0 0" Spacing="1 1 1">
  <Piece Extent="0 79 0 19 0 19">
    <PointData Scalars="density">
       <DataArray type="Float32" Name="reddensity" NumberOfComponents="1" format="ascii">
      0   0   0   0   0   
      0   0   0   0   0   
      0   0   0   0   0   
      0   0   0   0   0   
      0   0   0   0   0   
      0   0   0   0   0   
      0   0   0   0   0   
      0   0   0   0   0   
      0   0   0   0   0   
      0   0   0   0   0   
      0   0   0   0   0   
      0   0   0   0   0   
      0   0   0   0   0   
      0   0   0   0   0   
      0   0   0   0   0   
      0   0   0   0   0   
      0   0   0   0   0   
      0   0   0   0   0   
      0   0   0   0   0   
      0   0   0   0   0   
      0   0   0   0   0   
      0   0   0   0   0   
      0   0   0   0   0   
      0   0   0   0   0   
      0   0   0   0   0   
      0   0   0   0   0   
      0   0   0   0   0   
      0   0   0   0   0   
      0   0   0   0   0   
      0   0   0   0   0   
      0   0   0   0   0   
      0   0   0   0   0   
      0   0   0   0   0   
      0   0   0   0   0   
      0   0   0   0   0   
      0   0   0   0   0   
      0   0   0   0   0   
      0   0   0   0   0   
      0   0   0   0   0   
      0   0   0   0   0   
      0   0   0   0   0   
      0   0   0   0   0   
      0   0   0   0   0   
      0   0   0   0   0   
      0   0   0   0   0   
      0   0   0   0   0   
      0   0   0   0   0   
      0   0   0   0   0   
      0   0   0   0   0   
      0   0   0   0   0   
      0   0   0   0   0   
      0   0   0   0   0   
      0   0   0   0   0   
      0   0   0   0   0   
      0   0   0   0   0   
      0   0   0   0   0   
      0   0   0   0   0   
      0   0   0   0   0   
      0   0   0   0   0   
      0   0   0   0   0   
      0   0   0   0   0   
      0   0   0   0   0   
      0   0   0   0   0   
      0   0   0   0   0   
      0   0   0   0   0   
      0   0   0   0   0   
      0   0   0   0   0   
      0   0   0   0   0   
      0   0   0   0   0   
      0   0   0   0   0   
      0   0   0   0   0   
      0   0   0   0   0   
      0   0   0   0   0   
      0   0   0   0   0   
      0   0   0   0   0   
      0   0   0   0   0   
      0   0   0   0   0   
      0   0   0   0   0   
      0   0   0   0   0   
      0   0   0   0   0   
      0   0   0   0   0   
      0   0   0   0   0   
      0   0   0   0   0   
      0   0   0   0   0   
      0   0   0   0   0   
      0   0   0   0   0   
      0   0   0   0   0   
      0   0   0   0   0   
      0   0   0   0   0   
      0   0   0   0   0   
      0   0   0   0   0   
      0   0   0   0   0   
      0   0   0   0   0   
      0   0   0   0   0   
      0   0   0   0   0   
      0   0   0   0   0   
      0   0   0   0   0   
      0   0   0   0   0   
      0   0   0   0   0   
      0   0   0   0   0   
      0   0   0   0   0   
      0   0   0   0   0   
      0   0   0   0   0   
      0   0   0   0   0   
      0   0   0   0   0   
      0   0   0   0   0   
      0   0   0   0   0   
      0   0   0   0   0   
      0   0   0   0   0   
      0   0   0   0   0   
      0   0   0   0   0   
      0   0   0   0   0   
      0   0   0   0   0   
      0   0   0   0   0   
      0   0   0   0   0   
      0   0   0   0   0   
      0   0   0   0   0   
      0   0   0   0   0   
      0   0   0   0   0   
      0   0   0   0   0   
      0   0   0   0   0   
      0   0   0   0   0   
      0   0   0   0   0   
      0   0   0   0   0   
      0   0   0   0   0   
      0   0   0   0   0   
      0   0   0   0   0   
      0   0   0   0   0   
      0   0   0   0   0   
      0   0   0   0   0   
      0   0   0   0   0   
      0   0   0   0   0   
      0   0   0   0   0   
      0   0   0   0   0   
      0   0   0   0   0   
      0   0   0   0   0   
      0   0   0   0   0   
      0   0   0   0   0   
      0   0   0   0   0   
      0   0   0   0   0   
      0   0   0   0   0   
      0   0   0   0   0   
      0   0   0   0   0   
      0   0   0   0   0   
      0   0   0   0   0   
      0   0   0   0   0   
      0   0   0   0   0   
      0   0   0   0   0   
      0   0   0   0   0   
      0   0   0   0   0   
      0   0   0   0   0   
      0   0   0   0   0   
      0   0   0   0   0   
      0   0   0   0   0   
      0   0   0   0   0   
      0   0   0   0   0   
      0   0   0   0   0   
      0   0   0   0   0   
      0   0   0   0   0   
      0   0   0   0   0   
      0   0   0   0   0   
      0   0   0   0   0   
      0   0   0   0   0   
      0   0   0   0   0   
      0   0   0   0   0   
      0   0   0   0   0   
      0   0   0   0   0   
      0   0   0   0   0   
      0   0   0   0   0   
      0   0   0   0   0   
      0   0   0   0   0   
      0   0   0   0   0   
      0   0   0   0   0   
      0   0   0   0   0   
      0   0   0   0   0   
      0   0   0   0   0   
      0   0   0   0   0   
      0   0   0   0   0   
      0   0   0   0   0   
      0   0   0   0   0   
      0   0   0   0   0   
      0   0   0   0   0   
      0   0   0   0   0   
      0   0   0   0   0   
      0   0   0   0   0   
      0   0   0   0   0   
      0   0   0   0   0   
      0   0   0   0   0   
      0   0   0   0   0   
      0   0   0   0   0   
      0   0   0   0   0   
      0   0   0   0   0   
      0   0   0   0   0   
      0   0   0   0   0   
      0   0   0   0   0   
      0   0   0   0   0   
      0   0   0   0   0   
      0   0   0   0   0   
      0   0   0   0   0   
      0   0   0   0   0   
      0   0   0   0   0   
      0   0   0   0   0   
      0   0   0   0   0   
      0   0   0   0   0   
      0   0   0   0   0   
      0   0   0   0   0   
      0   0   0   0   0   
      0   0   0   0   0   
      0   0   0   0   0   
      0   0   0   0   0   
      0   0   0   0   0   
      0   0   0   0   0   
      0   0   0   0   0   
      0   0   0   0   0   
      0   0   0   0   0   
      0   0   0   0   0   
      0   0   0   0   0   
      0   0   0   0   0   
      0   0   0   0   0   
      0   0   0   0   0   
      0   0   0   0   0   
      0   0   0   0   0   
      0   0   0   0   0   
      0   0   0   0   0   
      0   0   0   0   0   
      0   0   0   0   0   
      0   0   0   0   0   
      0   0   0   0   0   
      0   0   0   0   0   
      0   0   0   0   0   
      0   0   0   0   0   
      0   0   0   0   0   
      0   0   0   0   0   
      0   0   0   0   0   
      0   0   0   0   0   
      0   0   0   0   0   
      0   0   0   0   0   
      0   0   0   0   0   
      0   0   0   0   0   
      0   0   0   0   0   
      0   0   0   0   0   
      0   0   0   0   0   
      0   0   0   0   0   
      0   0   0   0   0   
      0   0   0   0   0   
      0   0   0   0   0   
      0   0   0   0   0   
      0   0   0   0   0   
      0   0   0   0   0   
      0   0   0   0   0   
      0   0   0   0   0   
      0   0   0   0   0   
      0   0   0   0   0   
      0   0   0   0   0   
      0   0   0   0   0   
      0   0   0   0   0   
      0   0   0   0   0   
      0   0   0   0   0   
      0   0   0   0   0   
      0   0   0   0   0   
      0   0   0   0   0   
      0   0   0   0   0   
      0   0   0   0   0   
      0   0   0   0   0   
      0   0   0   0   0   
      0   0   0   0   0   
      0   0   0   0   0   
      0   0   0   0   0   
      0   0   0   0   0   
      0   0   0   0   0   
      0   0   0   0   0   
      0   0   0   0   0   
      0   0   0   0   0   
      0   0   0   0   0   
      0   0   0   0   0   
      0   0   0   0   0   
      0   0   0   0   0   
      0   0   0   0   0   
      0   0   0   0   0   
      0   0   0   0   0   
      0   0   0   0   0   
      0   0   0   0   0   
      0   0   0   0   0   
      0   0   0   0   0   
      0   0   0   0   0   
      0   0   0   0   0   
      0   0   0   0   0   
      0   0   0   0   0   
      0   0   0   0   0   
      0   0   0   0   0   
      0   0   0   0   0   
      0   0   0   0   0   
      0   0   0   0   0   
      0   0   0   0   0   
      0   0   0   0   0   
      0   0   0   0   0   
      0   0   0   0   0   
      0   0   0   0   0   
      0   0   0   0   0   
      0   0   0   0   0   
      0   0   0   0   0   
      0   0   0   0   0   
      0   0   0   0   0   
      0   0   0   0   0   
      0   0   0   0   0   
      0   0   0   0   0   
      0   0   0   0   0   
      0   0   0   0   0   
      0   0   0   0   0   
      0   0   0   0   0   
      0   0   0   0   0   
      0   0   0   0   0   
      0   0   0   0   0   
      0   0   0   0   0   
      0   0   0   0   0   
      0   0   0   0   0   
      0   0   0   0   0   
      0   0   0   0   0   
      0   0   0   0   0   
      0   0   0   0   0   
      0   0   0   0   0   
      0   0   0   0   0   
      0   0   0   0   0   
      0   0   0   0   0   
      0   0   0   0   0   
      0   0   0   0   0   
      0   0   0   0   0   
      0   0   0   0   0   
      0   0   0   0   0   
      0   0   0   0   0   
      0   0   0   0   0   
      0   0   0   0   0   
      0   0   0   0   0   
      0   0   0   0   0   
      0   0   0   0   0   
      0   0   0   0   0   
      0.0816499371063   0.0816588143046   0.0816854616989   0.0817299264804   0.0817922865877   
      0.0818726495494   0.0819711506862   0.0820879504876   0.0822232309191   0.0823771903457   
      0.0825500366964   0.0827419784242   0.082953212762   0.0831839107356   0.0834341983883   
      0.0837041337082   0.0839936788497   0.0843026674222   0.0846307668875   0.0849774364835   
      0.0853418815617   0.0857230057804   0.0861193632011   0.0865291129415   0.0869499795816   
      0.0873792229257   0.0878136209103   0.0882494693547   0.0886826018183   0.0891084320509   
      0.089522020397   0.0899181641292   0.0902915101017   0.0906366864891   0.0909484488202   
      0.0912218341933   0.0914523165764   0.091635955566   0.091769530947   0.0918506558937   
      0.091877862643   0.0918506558937   0.091769530947   0.091635955566   0.0914523165764   
      0.0912218341933   0.0909484488202   0.0906366864891   0.0902915101017   0.0899181641292   
      0.089522020397   0.0891084320509   0.0886826018183   0.0882494693547   0.0878136209103   
      0.0873792229257   0.0869499795816   0.0865291129415   0.0861193632011   0.0857230057804   
      0.0853418815617   0.0849774364835   0.0846307668875   0.0843026674222   0.0839936788497   
      0.0837041337082   0.0834341983883   0.0831839107356   0.082953212762   0.0827419784242   
      0.0825500366964   0.0823771903457   0.0822232309191   0.0820879504876   0.0819711506862   
      0.0818726495494   0.0817922865877   0.0817299264804   0.0816854616989   0.0816588143046   
      0.089322466168   0.0893350389274   0.0893727833013   0.0894357772542   0.0895241496099   
      0.0896380782459   0.0897777872957   0.0899435430845   0.090135648427   0.0903544348235   
      0.0906002519904   0.0908734540663   0.0911743817565   0.0915033396249   0.0918605677389   
      0.0922462069368   0.0926602571461   0.0931025284582   0.093572585081   0.0940696828571   
      0.0945927017413   0.0951400754606   0.0957097214707   0.0962989752052   0.0969045333834   
      0.0975224116865   0.0981479223162   0.0987756767129   0.0993996179741   0.100013086261   
      0.100608918758   0.101179583677   0.101717345501   0.10221445638   0.1026633665   
      0.103056944512   0.103388697962   0.103652983115   0.103845193706   0.103961919027   
      0.104001063144   0.103961919027   0.103845193706   0.103652983115   0.103388697962   
      0.103056944512   0.1026633665   0.10221445638   0.101717345501   0.101179583677   
      0.100608918758   0.100013086261   0.0993996179741   0.0987756767129   0.0981479223162   
      0.0975224116865   0.0969045333834   0.0962989752052   0.0957097214707   0.0951400754606   
      0.0945927017413   0.0940696828571   0.093572585081   0.0931025284582   0.0926602571461   
      0.0922462069368   0.0918605677389   0.0915033396249   0.0911743817565   0.0908734540663   
      0.0906002519904   0.0903544348235   0.090135648427   0.0899435430845   0.0897777872957   
      0.0896380782459   0.0895241496099   0.0894357772542   0.0893727833013   0.0893350389274   
      0.102137015508   0.102157298001   0.102218193907   0.102319847912   0.102462499112   
      0.102646477711   0.102872199916   0.103140160559   0.103450922785   0.103805103994   
      0.104203357078   0.104646345808   0.105134713122   0.105669040999   0.10624980061   
      0.106877291584   0.107551569578   0.108272361809   0.109038971046   0.10985016952   
      0.110704085517   0.11159808681   0.11252866661   0.113491339092   0.114480552715   
      0.115489630193   0.116510743966   0.117534935232   0.118552182877   0.11955152623   
      0.120521242382   0.121449075302   0.12232251044   0.123129085134   0.123856722464   
      0.124494074287   0.125030858201   0.125458173242   0.12576878   0.125957332539   
      0.126020551757   0.125957332539   0.12576878   0.125458173242   0.125030858201   
      0.124494074287   0.123856722464   0.123129085134   0.12232251044   0.121449075302   
      0.120521242382   0.11955152623   0.118552182877   0.117534935232   0.116510743966   
      0.115489630193   0.114480552715   0.113491339092   0.11252866661   0.11159808681   
      0.110704085517   0.10985016952   0.109038971046   0.108272361809   0.107551569578   
      0.106877291584   0.10624980061   0.105669040999   0.105134713122   0.104646345808   
      0.104203357078   0.103805103994   0.103450922785   0.103140160559   0.102872199916   
      0.102646477711   0.102462499112   0.102319847912   0.102218193907   0.102157298001   
      0.112291832912   0.112320442759   0.112406345513   0.112549759837   0.112751046825   
      0.113010704616   0.113329360129   0.113707757159   0.114146739841   0.114647230264   
      0.115210198767   0.115836625232   0.116527449569   0.117283509513   0.118105463951   
      0.118993700357   0.119948225441   0.120968539111   0.122053493095   0.12320113724   
      0.124408558458   0.125671719397   0.126985305998   0.128342594864   0.129735352514   
      0.13115377883   0.132586506083   0.134020662752   0.135442007983   0.136835138223   
      0.138183762747   0.139471039975   0.140679962152   0.14179377273   0.142796398757   
      0.143672879983   0.144409777119   0.144995543355   0.145420845682   0.145678825248   
      0.145765288729   0.145678825248   0.145420845682   0.144995543355   0.144409777119   
      0.143672879983   0.142796398757   0.14179377273   0.140679962152   0.139471039975   
      0.138183762747   0.136835138223   0.135442007983   0.134020662752   0.132586506083   
      0.13115377883   0.129735352514   0.128342594864   0.126985305998   0.125671719397   
      0.124408558458   0.12320113724   0.122053493095   0.120968539111   0.119948225441   
      0.118993700357   0.118105463951   0.117283509513   0.116527449569   0.115836625232   
      0.115210198767   0.114647230264   0.114146739841   0.113707757159   0.113329360129   
      0.113010704616   0.112751046825   0.112549759837   0.112406345513   0.112320442759   
      0.121664076346   0.121701092889   0.121812240097   0.121997809237   0.122258280711   
      0.122594315968   0.123006745154   0.123496549425   0.124064836552   0.124712808106   
      0.125441716237   0.126252807789   0.127147253373   0.128126059046   0.129189958494   
      0.130339284262   0.131573817542   0.132892617554   0.134293833527   0.13577450472   
      0.137330356636   0.138955604387   0.140642776583   0.142382574898   0.144163784993   
      0.145973253498   0.147795943059   0.149615073069   0.151412348011   0.153168268935   
      0.154862517317   0.156474395101   0.157983301007   0.159369221366   0.160613214125   
      0.161697866787   0.162607712534   0.163329592811   0.163852958684   0.164170106704   
      0.164276347488   0.164170106704   0.163852958684   0.163329592811   0.162607712534   
      0.161697866787   0.160613214125   0.159369221366   0.157983301007   0.156474395101   
      0.154862517317   0.153168268935   0.151412348011   0.149615073069   0.147795943059   
      0.145973253498   0.144163784993   0.142382574898   0.140642776583   0.138955604387   
      0.137330356636   0.13577450472   0.134293833527   0.132892617554   0.131573817542   
      0.130339284262   0.129189958494   0.128126059046   0.127147253373   0.126252807789   
      0.125441716237   0.124712808106   0.124064836552   0.123496549425   0.123006745154   
      0.122594315968   0.122258280711   0.121997809237   0.121812240097   0.121701092889   
      0.129733665891   0.129778097316   0.129911509132   0.130134251927   0.130446902996   
      0.130850255154   0.131345299714   0.131933202269   0.132615269502   0.133392904874   
      0.134267550679   0.135240613731   0.136313371862   0.137486858566   0.13876172368   
      0.140138068951   0.141615258916   0.143191709648   0.144864660711   0.146629938824   
      0.148481725214   0.150412341748   0.152412073463   0.154469046177   0.156569177174   
      0.158696214003   0.160831871317   0.162956068671   0.165047264178   0.167082870849   
      0.169039735589   0.170894656092   0.172624909024   0.174208763974   0.175625961369   
      0.176858138039   0.177889190435   0.178705571565   0.179296522708   0.179654244343   
      0.179774012229   0.179654244343   0.179296522708   0.178705571565   0.177889190435   
      0.176858138039   0.175625961369   0.174208763974   0.172624909024   0.170894656092   
      0.169039735589   0.167082870849   0.165047264178   0.162956068671   0.160831871317   
      0.158696214003   0.156569177174   0.154469046177   0.152412073463   0.150412341748   
      0.148481725214   0.146629938824   0.144864660711   0.143191709648   0.141615258916   
      0.140138068951   0.13876172368   0.137486858566   0.136313371862   0.135240613731   
      0.134267550679   0.133392904874   0.132615269502   0.131933202269   0.131345299714   
      0.130850255154   0.130446902996   0.130134251927   0.129911509132   0.129778097316   
      0.136084901156   0.136135150573   0.136286030582   0.136537933839   0.136891505788   
      0.137347630377   0.137907408428   0.13857212702   0.139343217775   0.140222201517   
      0.141210616399   0.14230992639   0.143521407043   0.144846005799   0.146284174913   
      0.147835676517   0.149499361402   0.151272925928   0.153152654911   0.155133162203   
      0.157207144514   0.159365167362   0.161595504061   0.163884048746   0.166214322056   
      0.16856758295   0.170923052534   0.17325824648   0.175549402794   0.177771982882   
      0.179901217406   0.181912665381   0.183782755774   0.185489285197   0.187011852247   
      0.188332217463   0.18943458615   0.190305818542   0.190935576863   0.191316421525   
      0.191443868941   0.191316421525   0.190935576863   0.190305818542   0.18943458615   
      0.188332217463   0.187011852247   0.185489285197   0.183782755774   0.181912665381   
      0.179901217406   0.177771982882   0.175549402794   0.17325824648   0.170923052534   
      0.16856758295   0.166214322056   0.163884048746   0.161595504061   0.159365167362   
      0.157207144514   0.155133162203   0.153152654911   0.151272925928   0.149499361402   
      0.147835676517   0.146284174913   0.144846005799   0.143521407043   0.14230992639   
      0.141210616399   0.140222201517   0.139343217775   0.13857212702   0.137907408428   
      0.137347630377   0.136891505788   0.136537933839   0.136286030582   0.136135150573   
      0.140419294079   0.140473473811   0.140636153417   0.140907751024   0.141288952925   
      0.141780696777   0.142384146238   0.143100655209   0.143931719328   0.144878911911   
      0.145943801193   0.147127845526   0.148432263359   0.149857875286   0.151404916604   
      0.153072820533   0.154859974841   0.156763457878   0.158778764036   0.160899532872   
      0.163117300255   0.165421293061   0.167798290434   0.170232573677   0.172705982888   
      0.175198091516   0.177686500486   0.180147242643   0.182555277496   0.184885047348   
      0.187111060374   0.189208464997   0.191153583145   0.192924376873   0.194500832263   
      0.195865254641   0.197002478631   0.197900003975   0.198548072846   0.19893970622   
      0.199070715965   0.19893970622   0.198548072846   0.197900003975   0.197002478631   
      0.195865254641   0.194500832263   0.192924376873   0.191153583145   0.189208464997   
      0.187111060374   0.184885047348   0.182555277496   0.180147242643   0.177686500486   
      0.175198091516   0.172705982888   0.170232573677   0.167798290434   0.165421293061   
      0.163117300255   0.160899532872   0.158778764036   0.156763457878   0.154859974841   
      0.153072820533   0.151404916604   0.149857875286   0.148432263359   0.147127845526   
      0.145943801193   0.144878911911   0.143931719328   0.143100655209   0.142384146238   
      0.141780696777   0.141288952925   0.140907751024   0.140636153417   0.140473473811   
      0.142605855942   0.142662002013   0.142830584615   0.143112033543   0.143507053628   
      0.144016606521   0.144641883241   0.145384265549   0.146245273664   0.147226497401   
      0.148329507437   0.149555743294   0.150906374796   0.152382134406   0.153983119069   
      0.155708562185   0.157556579087   0.159523893034   0.161605552901   0.163794658231   
      0.1660821115   0.16845642044   0.170903574407   0.173407017159   0.175947733564   
      0.178504459762   0.181054015841   0.183571748339   0.186032058806   0.188408985877   
      0.190676803534   0.19281059811   0.194786791253   0.196583584373   0.198181310693   
      0.199562692013   0.200713007138   0.201620186342   0.202274850676   0.202670316236   
      0.202802582017   0.202670316236   0.202274850676   0.201620186342   0.200713007138   
      0.199562692013   0.198181310693   0.196583584373   0.194786791253   0.19281059811   
      0.190676803534   0.188408985877   0.186032058806   0.183571748339   0.181054015841   
      0.178504459762   0.175947733564   0.173407017159   0.170903574407   0.16845642044   
      0.1660821115   0.163794658231   0.161605552901   0.159523893034   0.157556579087   
      0.155708562185   0.153983119069   0.152382134406   0.150906374796   0.149555743294   
      0.148329507437   0.147226497401   0.146245273664   0.145384265549   0.144641883241   
      0.144016606521   0.143507053628   0.143112033543   0.142830584615   0.142662002013   
      0.142605855942   0.142662002013   0.142830584615   0.143112033543   0.143507053628   
      0.144016606521   0.144641883241   0.145384265549   0.146245273664   0.147226497401   
      0.148329507437   0.149555743294   0.150906374796   0.152382134406   0.153983119069   
      0.155708562185   0.157556579087   0.159523893034   0.161605552901   0.163794658231   
      0.1660821115   0.16845642044   0.170903574407   0.173407017159   0.175947733564   
      0.178504459762   0.181054015841   0.183571748339   0.186032058806   0.188408985877   
      0.190676803534   0.19281059811   0.194786791253   0.196583584373   0.198181310693   
      0.199562692013   0.200713007138   0.201620186342   0.202274850676   0.202670316236   
      0.202802582017   0.202670316236   0.202274850676   0.201620186342   0.200713007138   
      0.199562692013   0.198181310693   0.196583584373   0.194786791253   0.19281059811   
      0.190676803534   0.188408985877   0.186032058806   0.183571748339   0.181054015841   
      0.178504459762   0.175947733564   0.173407017159   0.170903574407   0.16845642044   
      0.1660821115   0.163794658231   0.161605552901   0.159523893034   0.157556579087   
      0.155708562185   0.153983119069   0.152382134406   0.150906374796   0.149555743294   
      0.148329507437   0.147226497401   0.146245273664   0.145384265549   0.144641883241   
      0.144016606521   0.143507053628   0.143112033543   0.142830584615   0.142662002013   
      0.140419294079   0.140473473811   0.140636153417   0.140907751024   0.141288952925   
      0.141780696777   0.142384146238   0.143100655209   0.143931719328   0.144878911911   
      0.145943801193   0.147127845526   0.148432263359   0.149857875286   0.151404916604   
      0.153072820533   0.154859974841   0.156763457878   0.158778764036   0.160899532872   
      0.163117300255   0.165421293061   0.167798290434   0.170232573677   0.172705982888   
      0.175198091516   0.177686500486   0.180147242643   0.182555277496   0.184885047348   
      0.187111060374   0.189208464997   0.191153583145   0.192924376873   0.194500832263   
      0.195865254641   0.197002478631   0.197900003975   0.198548072846   0.19893970622   
      0.199070715965   0.19893970622   0.198548072846   0.197900003975   0.197002478631   
      0.195865254641   0.194500832263   0.192924376873   0.191153583145   0.189208464997   
      0.187111060374   0.184885047348   0.182555277496   0.180147242643   0.177686500486   
      0.175198091516   0.172705982888   0.170232573677   0.167798290434   0.165421293061   
      0.163117300255   0.160899532872   0.158778764036   0.156763457878   0.154859974841   
      0.153072820533   0.151404916604   0.149857875286   0.148432263359   0.147127845526   
      0.145943801193   0.144878911911   0.143931719328   0.143100655209   0.142384146238   
      0.141780696777   0.141288952925   0.140907751024   0.140636153417   0.140473473811   
      0.136084901156   0.136135150573   0.136286030582   0.136537933839   0.136891505788   
      0.137347630377   0.137907408428   0.13857212702   0.139343217775   0.140222201517   
      0.141210616399   0.14230992639   0.143521407043   0.144846005799   0.146284174913   
      0.147835676517   0.149499361402   0.151272925928   0.153152654911   0.155133162203   
      0.157207144514   0.159365167362   0.161595504061   0.163884048746   0.166214322056   
      0.16856758295   0.170923052534   0.17325824648   0.175549402794   0.177771982882   
      0.179901217406   0.181912665381   0.183782755774   0.185489285197   0.187011852247   
      0.188332217463   0.18943458615   0.190305818542   0.190935576863   0.191316421525   
      0.191443868941   0.191316421525   0.190935576863   0.190305818542   0.18943458615   
      0.188332217463   0.187011852247   0.185489285197   0.183782755774   0.181912665381   
      0.179901217406   0.177771982882   0.175549402794   0.17325824648   0.170923052534   
      0.16856758295   0.166214322056   0.163884048746   0.161595504061   0.159365167362   
      0.157207144514   0.155133162203   0.153152654911   0.151272925928   0.149499361402   
      0.147835676517   0.146284174913   0.144846005799   0.143521407043   0.14230992639   
      0.141210616399   0.140222201517   0.139343217775   0.13857212702   0.137907408428   
      0.137347630377   0.136891505788   0.136537933839   0.136286030582   0.136135150573   
      0.129733665891   0.129778097316   0.129911509132   0.130134251927   0.130446902996   
      0.130850255154   0.131345299714   0.131933202269   0.132615269502   0.133392904874   
      0.134267550679   0.135240613731   0.136313371862   0.137486858566   0.13876172368   
      0.140138068951   0.141615258916   0.143191709648   0.144864660711   0.146629938824   
      0.148481725214   0.150412341748   0.152412073463   0.154469046177   0.156569177174   
      0.158696214003   0.160831871317   0.162956068671   0.165047264178   0.167082870849   
      0.169039735589   0.170894656092   0.172624909024   0.174208763974   0.175625961369   
      0.176858138039   0.177889190435   0.178705571565   0.179296522708   0.179654244343   
      0.179774012229   0.179654244343   0.179296522708   0.178705571565   0.177889190435   
      0.176858138039   0.175625961369   0.174208763974   0.172624909024   0.170894656092   
      0.169039735589   0.167082870849   0.165047264178   0.162956068671   0.160831871317   
      0.158696214003   0.156569177174   0.154469046177   0.152412073463   0.150412341748   
      0.148481725214   0.146629938824   0.144864660711   0.143191709648   0.141615258916   
      0.140138068951   0.13876172368   0.137486858566   0.136313371862   0.135240613731   
      0.134267550679   0.133392904874   0.132615269502   0.131933202269   0.131345299714   
      0.130850255154   0.130446902996   0.130134251927   0.129911509132   0.129778097316   
      0.121664076346   0.121701092889   0.121812240097   0.121997809237   0.122258280711   
      0.122594315968   0.123006745154   0.123496549425   0.124064836552   0.124712808106   
      0.125441716237   0.126252807789   0.127147253373   0.128126059046   0.129189958494   
      0.130339284262   0.131573817542   0.132892617554   0.134293833527   0.13577450472   
      0.137330356636   0.138955604387   0.140642776583   0.142382574898   0.144163784993   
      0.145973253498   0.147795943059   0.149615073069   0.151412348011   0.153168268935   
      0.154862517317   0.156474395101   0.157983301007   0.159369221366   0.160613214125   
      0.161697866787   0.162607712534   0.163329592811   0.163852958684   0.164170106704   
      0.164276347488   0.164170106704   0.163852958684   0.163329592811   0.162607712534   
      0.161697866787   0.160613214125   0.159369221366   0.157983301007   0.156474395101   
      0.154862517317   0.153168268935   0.151412348011   0.149615073069   0.147795943059   
      0.145973253498   0.144163784993   0.142382574898   0.140642776583   0.138955604387   
      0.137330356636   0.13577450472   0.134293833527   0.132892617554   0.131573817542   
      0.130339284262   0.129189958494   0.128126059046   0.127147253373   0.126252807789   
      0.125441716237   0.124712808106   0.124064836552   0.123496549425   0.123006745154   