<?xml version="1.0"?>
<VTKFile type="ImageData" version="0.1" byte_order="LittleEndian">
  <ImageData WholeExtent="0 79 0 19 0 19" Origin="0 0 0" Spacing="1 1 1">
  <Piece Extent="0 79 0 19 0 19">
    <PointData Scalars="density">
       <DataArray type="Float32" Name="reddensity" NumberOfComponents="1" format="ascii">
      0   0   0   0   0   
      0   0   0   0   0   
      0   0   0   0   0   
      0   0   0   0   0   
      0   0   0   0   0   
      0   0   0   0   0   
      0   0   0   0   0   
      0   0   0   0   0   
      0   0   0   0   0   
      0   0   0   0   0   
      0   0   0   0   0   
      0   0   0   0   0   
      0   0   0   0   0   
      0   0   0   0   0   
      0   0   0   0   0   
      0   0   0   0   0   
      0   0   0   0   0   
      0   0   0   0   0   
      0   0   0   0   0   
      0   0   0   0   0   
      0   0   0   0   0   
      0   0   0   0   0   
      0   0   0   0   0   
      0   0   0   0   0   
      0   0   0   0   0   
      0   0   0   0   0   
      0   0   0   0   0   
      0   0   0   0   0   
      0   0   0   0   0   
      0   0   0   0   0   
      0   0   0   0   0   
      0   0   0   0   0   
      0   0   0   0   0   
      0   0   0   0   0   
      0   0   0   0   0   
      0   0   0   0   0   
      0   0   0   0   0   
      0   0   0   0   0   
      0   0   0   0   0   
      0   0   0   0   0   
      0   0   0   0   0   
      0   0   0   0   0   
      0   0   0   0   0   
      0   0   0   0   0   
      0   0   0   0   0   
      0   0   0   0   0   
      0   0   0   0   0   
      0   0   0   0   0   
      0   0   0   0   0   
      0   0   0   0   0   
      0   0   0   0   0   
      0   0   0   0   0   
      0   0   0   0   0   
      0   0   0   0   0   
      0   0   0   0   0   
      0   0   0   0   0   
      0   0   0   0   0   
      0   0   0   0   0   
      0   0   0   0   0   
      0   0   0   0   0   
      0   0   0   0   0   
      0   0   0   0   0   
      0   0   0   0   0   
      0   0   0   0   0   
      0   0   0   0   0   
      0   0   0   0   0   
      0   0   0   0   0   
      0   0   0   0   0   
      0   0   0   0   0   
      0   0   0   0   0   
      0   0   0   0   0   
      0   0   0   0   0   
      0   0   0   0   0   
      0   0   0   0   0   
      0   0   0   0   0   
      0   0   0   0   0   
      0   0   0   0   0   
      0   0   0   0   0   
      0   0   0   0   0   
      0   0   0   0   0   
      0   0   0   0   0   
      0   0   0   0   0   
      0   0   0   0   0   
      0   0   0   0   0   
      0   0   0   0   0   
      0   0   0   0   0   
      0   0   0   0   0   
      0   0   0   0   0   
      0   0   0   0   0   
      0   0   0   0   0   
      0   0   0   0   0   
      0   0   0   0   0   
      0   0   0   0   0   
      0   0   0   0   0   
      0   0   0   0   0   
      0   0   0   0   0   
      0   0   0   0   0   
      0   0   0   0   0   
      0   0   0   0   0   
      0   0   0   0   0   
      0   0   0   0   0   
      0   0   0   0   0   
      0   0   0   0   0   
      0   0   0   0   0   
      0   0   0   0   0   
      0   0   0   0   0   
      0   0   0   0   0   
      0   0   0   0   0   
      0   0   0   0   0   
      0   0   0   0   0   
      0   0   0   0   0   
      0   0   0   0   0   
      0   0   0   0   0   
      0   0   0   0   0   
      0   0   0   0   0   
      0   0   0   0   0   
      0   0   0   0   0   
      0   0   0   0   0   
      0   0   0   0   0   
      0   0   0   0   0   
      0   0   0   0   0   
      0   0   0   0   0   
      0   0   0   0   0   
      0   0   0   0   0   
      0   0   0   0   0   
      0   0   0   0   0   
      0   0   0   0   0   
      0   0   0   0   0   
      0   0   0   0   0   
      0   0   0   0   0   
      0   0   0   0   0   
      0   0   0   0   0   
      0   0   0   0   0   
      0   0   0   0   0   
      0   0   0   0   0   
      0   0   0   0   0   
      0   0   0   0   0   
      0   0   0   0   0   
      0   0   0   0   0   
      0   0   0   0   0   
      0   0   0   0   0   
      0   0   0   0   0   
      0   0   0   0   0   
      0   0   0   0   0   
      0   0   0   0   0   
      0   0   0   0   0   
      0   0   0   0   0   
      0   0   0   0   0   
      0   0   0   0   0   
      0   0   0   0   0   
      0   0   0   0   0   
      0   0   0   0   0   
      0   0   0   0   0   
      0   0   0   0   0   
      0   0   0   0   0   
      0   0   0   0   0   
      0   0   0   0   0   
      0   0   0   0   0   
      0   0   0   0   0   
      0   0   0   0   0   
      0   0   0   0   0   
      0   0   0   0   0   
      0   0   0   0   0   
      0   0   0   0   0   
      0   0   0   0   0   
      0   0   0   0   0   
      0   0   0   0   0   
      0   0   0   0   0   
      0   0   0   0   0   
      0   0   0   0   0   
      0   0   0   0   0   
      0   0   0   0   0   
      0   0   0   0   0   
      0   0   0   0   0   
      0   0   0   0   0   
      0   0   0   0   0   
      0   0   0   0   0   
      0   0   0   0   0   
      0   0   0   0   0   
      0   0   0   0   0   
      0   0   0   0   0   
      0   0   0   0   0   
      0   0   0   0   0   
      0   0   0   0   0   
      0   0   0   0   0   
      0   0   0   0   0   
      0   0   0   0   0   
      0   0   0   0   0   
      0   0   0   0   0   
      0   0   0   0   0   
      0   0   0   0   0   
      0   0   0   0   0   
      0   0   0   0   0   
      0   0   0   0   0   
      0   0   0   0   0   
      0   0   0   0   0   
      0   0   0   0   0   
      0   0   0   0   0   
      0   0   0   0   0   
      0   0   0   0   0   
      0   0   0   0   0   
      0   0   0   0   0   
      0   0   0   0   0   
      0   0   0   0   0   
      0   0   0   0   0   
      0   0   0   0   0   
      0   0   0   0   0   
      0   0   0   0   0   
      0   0   0   0   0   
      0   0   0   0   0   
      0   0   0   0   0   
      0   0   0   0   0   
      0   0   0   0   0   
      0   0   0   0   0   
      0   0   0   0   0   
      0   0   0   0   0   
      0   0   0   0   0   
      0   0   0   0   0   
      0   0   0   0   0   
      0   0   0   0   0   
      0   0   0   0   0   
      0   0   0   0   0   
      0   0   0   0   0   
      0   0   0   0   0   
      0   0   0   0   0   
      0   0   0   0   0   
      0   0   0   0   0   
      0   0   0   0   0   
      0   0   0   0   0   
      0   0   0   0   0   
      0   0   0   0   0   
      0   0   0   0   0   
      0   0   0   0   0   
      0   0   0   0   0   
      0   0   0   0   0   
      0   0   0   0   0   
      0   0   0   0   0   
      0   0   0   0   0   
      0   0   0   0   0   
      0   0   0   0   0   
      0   0   0   0   0   
      0   0   0   0   0   
      0   0   0   0   0   
      0   0   0   0   0   
      0   0   0   0   0   
      0   0   0   0   0   
      0   0   0   0   0   
      0   0   0   0   0   
      0   0   0   0   0   
      0   0   0   0   0   
      0   0   0   0   0   
      0   0   0   0   0   
      0   0   0   0   0   
      0   0   0   0   0   
      0   0   0   0   0   
      0   0   0   0   0   
      0   0   0   0   0   
      0   0   0   0   0   
      0   0   0   0   0   
      0   0   0   0   0   
      0   0   0   0   0   
      0   0   0   0   0   
      0   0   0   0   0   
      0   0   0   0   0   
      0   0   0   0   0   
      0   0   0   0   0   
      0   0   0   0   0   
      0   0   0   0   0   
      0   0   0   0   0   
      0   0   0   0   0   
      0   0   0   0   0   
      0   0   0   0   0   
      0   0   0   0   0   
      0   0   0   0   0   
      0   0   0   0   0   
      0   0   0   0   0   
      0   0   0   0   0   
      0   0   0   0   0   
      0   0   0   0   0   
      0   0   0   0   0   
      0   0   0   0   0   
      0   0   0   0   0   
      0   0   0   0   0   
      0   0   0   0   0   
      0   0   0   0   0   
      0   0   0   0   0   
      0   0   0   0   0   
      0   0   0   0   0   
      0   0   0   0   0   
      0   0   0   0   0   
      0   0   0   0   0   
      0   0   0   0   0   
      0   0   0   0   0   
      0   0   0   0   0   
      0   0   0   0   0   
      0   0   0   0   0   
      0   0   0   0   0   
      0   0   0   0   0   
      0   0   0   0   0   
      0   0   0   0   0   
      0   0   0   0   0   
      0   0   0   0   0   
      0   0   0   0   0   
      0   0   0   0   0   
      0   0   0   0   0   
      0   0   0   0   0   
      0   0   0   0   0   
      0   0   0   0   0   
      0   0   0   0   0   
      0   0   0   0   0   
      0   0   0   0   0   
      0   0   0   0   0   
      0   0   0   0   0   
      0   0   0   0   0   
      0   0   0   0   0   
      0   0   0   0   0   
      0   0   0   0   0   
      0   0   0   0   0   
      0   0   0   0   0   
      0   0   0   0   0   
      0   0   0   0   0   
      0   0   0   0   0   
      0   0   0   0   0   
      0   0   0   0   0   
      0   0   0   0   0   
      0   0   0   0   0   
      0   0   0   0   0   
      0   0   0   0   0   
      0   0   0   0   0   
      0   0   0   0   0   
      0   0   0   0   0   
      0   0   0   0   0   
      0   0   0   0   0   
      0   0   0   0   0   
      0   0   0   0   0   
      0   0   0   0   0   
      0.0827988055261   0.0828054952225   0.0828255633197   0.0828590065131   0.0829058181867   
      0.0829659867197   0.0830394930518   0.0831263074471   0.0832263853824   0.0833396624771   
      0.0834660483759   0.0836054194988   0.0837576105875   0.0839224049975   0.0840995237255   
      0.0842886132171   0.0844892320709   0.0847008368461   0.0849227672902   0.0851542314257   
      0.085394291064   0.0856418484504   0.0858956348603   0.0861542020688   0.0864159176734   
      0.0866789652603   0.0869413503444   0.0872009128889   0.0874553469945   0.0877022280697   
      0.0879390474366   0.0881632539281   0.0883723016046   0.0885637022928   0.0887350812646   
      0.0888842340489   0.0890091821528   0.0891082253584   0.0891799883024   0.0892234592119   
      0.0892380189832   0.0892234592119   0.0891799883024   0.0891082253584   0.0890091821528   
      0.0888842340489   0.0887350812646   0.0885637022928   0.0883723016046   0.0881632539281   
      0.0879390474366   0.0877022280697   0.0874553469945   0.0872009128889   0.0869413503444   
      0.0866789652603   0.0864159176734   0.0861542020688   0.0858956348603   0.0856418484504   
      0.085394291064   0.0851542314257   0.0849227672902   0.0847008368461   0.0844892320709   
      0.0842886132171   0.0840995237255   0.0839224049975   0.0837576105875   0.0836054194988   
      0.0834660483759   0.0833396624771   0.0832263853824   0.0831263074471   0.0830394930518   
      0.0829659867197   0.0829058181867   0.0828590065131   0.0828255633197   0.0828054952225   
      0.0909801210969   0.0909896602208   0.091018277858   0.0910659743071   0.0911327483915   
      0.0912185948999   0.0913235009109   0.0914474409092   0.0915903705878   0.0917522192112   
      0.0919328804128   0.0921322013029   0.0923499697846   0.0925859000106   0.0928396159727   
      0.0931106332996   0.0933983394442   0.0937019725816   0.0940205996971   0.0943530945255   
      0.094698116194   0.0950540896142   0.09541918884   0.0957913247449   0.0961681384526   
      0.0965470019526   0.0969250272375   0.097299085092   0.0976658343485   0.0980217619917   
      0.0983632339821   0.09868655608   0.0989880433432   0.0992640963721   0.0995112818371   
      0.0997264143935   0.0999066367932   0.100049494886   0.100153004277   0.100215705654   
      0.100236706273   0.100215705654   0.100153004277   0.100049494886   0.0999066367932   
      0.0997264143935   0.0995112818371   0.0992640963721   0.0989880433432   0.09868655608   
      0.0983632339821   0.0980217619917   0.0976658343485   0.097299085092   0.0969250272375   
      0.0965470019526   0.0961681384526   0.0957913247449   0.09541918884   0.0950540896142   
      0.094698116194   0.0943530945255   0.0940205996971   0.0937019725816   0.0933983394442   
      0.0931106332996   0.0928396159727   0.0925859000106   0.0923499697846   0.0921322013029   
      0.0919328804128   0.0917522192112   0.0915903705878   0.0914474409092   0.0913235009109   
      0.0912185948999   0.0911327483915   0.0910659743071   0.091018277858   0.0909896602208   
      0.104861791603   0.104877289267   0.104923785378   0.105001288425   0.105109809632   
      0.105249358497   0.105419936383   0.105621528015   0.105854090697   0.106117541055   
      0.106411739078   0.106736469282   0.107091418823   0.107476152475   0.107890084495   
      0.108332447529   0.108802258933   0.109298285085   0.109819004574   0.110362571422   
      0.110926779859   0.111509032419   0.112106313445   0.112715170264   0.113331704354   
      0.11395157483   0.114570016285   0.115181872677   0.115781648348   0.11636357651   
      0.116921704695   0.117449995708   0.117942441663   0.118393187837   0.118796662256   
      0.119147706403   0.11944170208   0.119674689376   0.119843470901   0.119945697905   
      0.119979934599   0.119945697905   0.119843470901   0.119674689376   0.11944170208   
      0.119147706403   0.118796662256   0.118393187837   0.117942441663   0.117449995708   
      0.116921704695   0.11636357651   0.115781648348   0.115181872677   0.114570016285   
      0.11395157483   0.113331704354   0.112715170264   0.112106313445   0.111509032419   
      0.110926779859   0.110362571422   0.109819004574   0.109298285085   0.108802258933   
      0.108332447529   0.107890084495   0.107476152475   0.107091418823   0.106736469282   
      0.106411739078   0.106117541055   0.105854090697   0.105621528015   0.105419936383   
      0.105249358497   0.105109809632   0.105001288425   0.104923785378   0.104877289267   
      0.116186059307   0.116208004051   0.11627384418   0.116383596072   0.116537282587   
      0.116734926305   0.116976539823   0.117262112904   0.117591596211   0.117964881356   
      0.118381776967   0.118841980531   0.119345045822   0.119890345855   0.120477031479   
      0.121103985939   0.121769776071   0.122472601116   0.123210240579   0.123980002969   
      0.124778677717   0.125602492952   0.12644708215   0.127307462817   0.128178030427   
      0.129052570548   0.129924291699   0.130785880712   0.131629581488   0.132447296903   
      0.133230712434   0.133971438817   0.134661169926   0.135291851061   0.135855852068   
      0.13634613926   0.136756439954   0.13708139358   0.137316683774   0.137459146559   
      0.137506850599   0.137459146559   0.137316683774   0.13708139358   0.136756439954   
      0.13634613926   0.135855852068   0.135291851061   0.134661169926   0.133971438817   
      0.133230712434   0.132447296903   0.131629581488   0.130785880712   0.129924291699   
      0.129052570548   0.128178030427   0.127307462817   0.12644708215   0.125602492952   
      0.124778677717   0.123980002969   0.123210240579   0.122472601116   0.121769776071   
      0.121103985939   0.120477031479   0.119890345855   0.119345045822   0.118841980531   
      0.118381776967   0.117964881356   0.117591596211   0.117262112904   0.116976539823   
      0.116734926305   0.116537282587   0.116383596072   0.11627384418   0.116208004051   
      0.126747940027   0.126776377764   0.126861698485   0.127003922897   0.127203079369   
      0.127459194564   0.127772280031   0.128142314471   0.128569221368   0.129052841617   
      0.129592900839   0.130188971095   0.130840426857   0.131546395255   0.13230570091   
      0.133116805981   0.133977746484   0.134886066464   0.135838752093   0.136832168378   
      0.137862001663   0.138923211539   0.14000999609   0.141115774445   0.142233190402   
      0.143354140395   0.144469828247   0.145570848026   0.146647295019   0.147688903365   
      0.148685207422   0.149625722591   0.150500140186   0.151298530117   0.152011544693   
      0.152630616778   0.153148145774   0.153557665476   0.153853988588   0.154033323577   
      0.154093360525   0.154033323577   0.153853988588   0.153557665476   0.153148145774   
      0.152630616778   0.152011544693   0.151298530117   0.150500140186   0.149625722591   
      0.148685207422   0.147688903365   0.146647295019   0.145570848026   0.144469828247   
      0.143354140395   0.142233190402   0.141115774445   0.14000999609   0.138923211539   
      0.137862001663   0.136832168378   0.135838752093   0.134886066464   0.133977746484   
      0.133116805981   0.13230570091   0.131546395255   0.130840426857   0.130188971095   
      0.129592900839   0.129052841617   0.128569221368   0.128142314471   0.127772280031   
      0.127459194564   0.127203079369   0.127003922897   0.126861698485   0.126776377764   
      0.135871832418   0.135905963009   0.136008361908   0.136179048147   0.136418045596   
      0.136725371011   0.13710101694   0.137544929193   0.138056978478   0.138636925854   
      0.139284381642   0.13999875757   0.140779212084   0.141624589041   0.14253335034   
      0.143503503528   0.144532525953   0.145617287659   0.146753975887   0.14793802467   
      0.149164053569   0.150425819995   0.151716189724   0.15302713004   0.15434972944   
      0.155674246926   0.15699019268   0.158286440376   0.159551369718   0.160773036085   
      0.161939362604   0.163038348726   0.164058288502   0.164987991374   0.165816998337   
      0.166535786854   0.167135958641   0.167610405475   0.167953449175   0.168160952942   
      0.168230402092   0.168160952942   0.167953449175   0.167610405475   0.167135958641   
      0.166535786854   0.165816998337   0.164987991374   0.164058288502   0.163038348726   
      0.161939362604   0.160773036085   0.159551369718   0.158286440376   0.15699019268   
      0.155674246926   0.15434972944   0.15302713004   0.151716189724   0.150425819995   
      0.149164053569   0.14793802467   0.146753975887   0.145617287659   0.144532525953   
      0.143503503528   0.14253335034   0.141624589041   0.140779212084   0.13999875757   
      0.139284381642   0.138636925854   0.138056978478   0.137544929193   0.13710101694   
      0.136725371011   0.136418045596   0.136179048147   0.136008361908   0.135905963009   
      0.143052340582   0.143090904346   0.143206600798   0.143399442629   0.143669441636   
      0.144016594488   0.144440862417   0.1449421445   0.145520244128   0.146174828313   
      0.1469053795   0.147711139741   0.148591047309   0.149543666166   0.150567109169   
      0.151658956454   0.152816171096   0.154035014859   0.155310967581   0.156638654407   
      0.158011785614   0.159423114057   0.160864415234   0.16232649454   0.163799225415   
      0.165271620819   0.166731938812   0.168167821186   0.169566462142   0.170914802232   
      0.172199741289   0.173408363082   0.17452816394   0.175547277769   0.176454690466   
      0.17724043783   0.177895782311   0.178413365281   0.178787332729   0.179013433291   
      0.179089088222   0.179013433291   0.178787332729   0.178413365281   0.177895782311   
      0.17724043783   0.176454690466   0.175547277769   0.17452816394   0.173408363082   
      0.172199741289   0.170914802232   0.169566462142   0.168167821186   0.166731938812   
      0.165271620819   0.163799225415   0.16232649454   0.160864415234   0.159423114057   
      0.158011785614   0.156638654407   0.155310967581   0.154035014859   0.152816171096   
      0.151658956454   0.150567109169   0.149543666166   0.148591047309   0.147711139741   
      0.1469053795   0.146174828313   0.145520244128   0.1449421445   0.144440862417   
      0.144016594488   0.143669441636   0.143399442629   0.143206600798   0.143090904346   
      0.147947434637   0.147988970541   0.148113581007   0.148321271171   0.148612039123   
      0.148985859977   0.14944266319   0.149982302766   0.150604519956   0.151308898117   
      0.152094809453   0.152961353567   0.153907288047   0.154930951694   0.156030181552   
      0.157202225516   0.15844365304   0.159750267248   0.16111702249   0.162537952086   
      0.164006111451   0.165513541966   0.167051260755   0.168609280856   0.170176665105   
      0.171741615513   0.173291597949   0.174813499904   0.176293817043   0.177718862469   
      0.179074991289   0.180348832345   0.181527518885   0.182598910551   0.183551800121   
      0.184376099939   0.185063004558   0.185605127644   0.185996612547   0.186233216835   
      0.186312371651   0.186233216835   0.185996612547   0.185605127644   0.185063004558   
      0.184376099939   0.183551800121   0.182598910551   0.181527518885   0.180348832345   
      0.179074991289   0.177718862469   0.176293817043   0.174813499904   0.173291597949   
      0.171741615513   0.170176665105   0.168609280856   0.167051260755   0.165513541966   
      0.164006111451   0.162537952086   0.16111702249   0.159750267248   0.15844365304   
      0.157202225516   0.156030181552   0.154930951694   0.153907288047   0.152961353567   
      0.152094809453   0.151308898117   0.150604519956   0.149982302766   0.14944266319   
      0.148985859977   0.148612039123   0.148321271171   0.148113581007   0.147988970541   
      0.150414534157   0.150457548638   0.150586593239   0.15080166813   0.151102762524   
      0.151489837857   0.151962803842   0.152521487052   0.153165591638   0.153894651868   
      0.15470797624   0.155604583152   0.156583128433   0.157641825476   0.158778359258   
      0.15998979626   0.161272493003   0.162622006787   0.164033012943   0.165499233591   
      0.167013383332   0.168567137367   0.170151127252   0.171754968654   0.173367324181   
      0.174976002613   0.1765680938   0.178130136325   0.179648312916   0.181108666853   
      0.182497331401   0.183800763697   0.185005974728   0.186100747824   0.187073839437   
      0.187915157673   0.188615915794   0.189168759537   0.189567868457   0.189809032385   
      0.189889704482   0.189809032385   0.189567868457   0.189168759537   0.188615915794   
      0.187915157673   0.187073839437   0.186100747824   0.185005974728   0.183800763697   
      0.182497331401   0.181108666853   0.179648312916   0.178130136325   0.1765680938   
      0.174976002613   0.173367324181   0.171754968654   0.170151127252   0.168567137367   
      0.167013383332   0.165499233591   0.164033012943   0.162622006787   0.161272493003   
      0.15998979626   0.158778359258   0.157641825476   0.156583128433   0.155604583152   
      0.15470797624   0.153894651868   0.153165591638   0.152521487052   0.151962803842   
      0.151489837857   0.151102762524   0.15080166813   0.150586593239   0.150457548638   
      0.150414534157   0.150457548638   0.150586593239   0.15080166813   0.151102762524   
      0.151489837857   0.151962803842   0.152521487052   0.153165591638   0.153894651868   
      0.15470797624   0.155604583152   0.156583128433   0.157641825476   0.158778359258   
      0.15998979626   0.161272493003   0.162622006787   0.164033012943   0.165499233591   
      0.167013383332   0.168567137367   0.170151127252   0.171754968654   0.173367324181   
      0.174976002613   0.1765680938   0.178130136325   0.179648312916   0.181108666853   
      0.182497331401   0.183800763697   0.185005974728   0.186100747824   0.187073839437   
      0.187915157673   0.188615915794   0.189168759537   0.189567868457   0.189809032385   
      0.189889704482   0.189809032385   0.189567868457   0.189168759537   0.188615915794   
      0.187915157673   0.187073839437   0.186100747824   0.185005974728   0.183800763697   
      0.182497331401   0.181108666853   0.179648312916   0.178130136325   0.1765680938   
      0.174976002613   0.173367324181   0.171754968654   0.170151127252   0.168567137367   
      0.167013383332   0.165499233591   0.164033012943   0.162622006787   0.161272493003   
      0.15998979626   0.158778359258   0.157641825476   0.156583128433   0.155604583152   
      0.15470797624   0.153894651868   0.153165591638   0.152521487052   0.151962803842   
      0.151489837857   0.151102762524   0.15080166813   0.150586593239   0.150457548638   
      0.147947434637   0.147988970541   0.148113581007   0.148321271171   0.148612039123   
      0.148985859977   0.14944266319   0.149982302766   0.150604519956   0.151308898117   
      0.152094809453   0.152961353567   0.153907288047   0.154930951694   0.156030181552   
      0.157202225516   0.15844365304   0.159750267248   0.16111702249   0.162537952086   
      0.164006111451   0.165513541966   0.167051260755   0.168609280856   0.170176665105   
      0.171741615513   0.173291597949   0.174813499904   0.176293817043   0.177718862469   
      0.179074991289   0.180348832345   0.181527518885   0.182598910551   0.183551800121   
      0.184376099939   0.185063004558   0.185605127644   0.185996612547   0.186233216835   
      0.186312371651   0.186233216835   0.185996612547   0.185605127644   0.185063004558   
      0.184376099939   0.183551800121   0.182598910551   0.181527518885   0.180348832345   
      0.179074991289   0.177718862469   0.176293817043   0.174813499904   0.173291597949   
      0.171741615513   0.170176665105   0.168609280856   0.167051260755   0.165513541966   
      0.164006111451   0.162537952086   0.16111702249   0.159750267248   0.15844365304   
      0.157202225516   0.156030181552   0.154930951694   0.153907288047   0.152961353567   
      0.152094809453   0.151308898117   0.150604519956   0.149982302766   0.14944266319   
      0.148985859977   0.148612039123   0.148321271171   0.148113581007   0.147988970541   
      0.143052340582   0.143090904346   0.143206600798   0.143399442629   0.143669441636   
      0.144016594488   0.144440862417   0.1449421445   0.145520244128   0.146174828313   
      0.1469053795   0.147711139741   0.148591047309   0.149543666166   0.150567109169   
      0.151658956454   0.152816171096   0.154035014859   0.155310967581   0.156638654407   
      0.158011785614   0.159423114057   0.160864415234   0.16232649454   0.163799225415   
      0.165271620819   0.166731938812   0.168167821186   0.169566462142   0.170914802232   
      0.172199741289   0.173408363082   0.17452816394   0.175547277769   0.176454690466   
      0.17724043783   0.177895782311   0.178413365281   0.178787332729   0.179013433291   
      0.179089088222   0.179013433291   0.178787332729   0.178413365281   0.177895782311   
      0.17724043783   0.176454690466   0.175547277769   0.17452816394   0.173408363082   
      0.172199741289   0.170914802232   0.169566462142   0.168167821186   0.166731938812   
      0.165271620819   0.163799225415   0.16232649454   0.160864415234   0.159423114057   
      0.158011785614   0.156638654407   0.155310967581   0.154035014859   0.152816171096   
      0.151658956454   0.150567109169   0.149543666166   0.148591047309   0.147711139741   
      0.1469053795   0.146174828313   0.145520244128   0.1449421445   0.144440862417   
      0.144016594488   0.143669441636   0.143399442629   0.143206600798   0.143090904346   
      0.135871832418   0.135905963009   0.136008361908   0.136179048147   0.136418045596   
      0.136725371011   0.13710101694   0.137544929193   0.138056978478   0.138636925854   
      0.139284381642   0.13999875757   0.140779212084   0.141624589041   0.14253335034   
      0.143503503528   0.144532525953   0.145617287659   0.146753975887   0.14793802467   
      0.149164053569   0.150425819995   0.151716189724   0.15302713004   0.15434972944   
      0.155674246926   0.15699019268   0.158286440376   0.159551369718   0.160773036085   
      0.161939362604   0.163038348726   0.164058288502   0.164987991374   0.165816998337   
      0.166535786854   0.167135958641   0.167610405475   0.167953449175   0.168160952942   
      0.168230402092   0.168160952942   0.167953449175   0.167610405475   0.167135958641   
      0.166535786854   0.165816998337   0.164987991374   0.164058288502   0.163038348726   
      0.161939362604   0.160773036085   0.159551369718   0.158286440376   0.15699019268   
      0.155674246926   0.15434972944   0.15302713004   0.151716189724   0.150425819995   
      0.149164053569   0.14793802467   0.146753975887   0.145617287659   0.144532525953   
      0.143503503528   0.14253335034   0.141624589041   0.140779212084   0.13999875757   
      0.139284381642   0.138636925854   0.138056978478   0.137544929193   0.13710101694   
      0.136725371011   0.136418045596   0.136179048147   0.136008361908   0.135905963009   
      0.126747940027   0.126776377764   0.126861698485   0.127003922897   0.127203079369   
      0.127459194564   0.127772280031   0.128142314471   0.128569221368   0.129052841617   
      0.129592900839   0.130188971095   0.130840426857   0.131546395255   0.13230570091   
      0.133116805981   0.133977746484   0.134886066464   0.135838752093   0.136832168378   
      0.137862001663   0.138923211539   0.14000999609   0.141115774445   0.142233190402   
      0.143354140395   0.144469828247   0.145570848026   0.146647295019   0.147688903365   
      0.148685207422   0.149625722591   0.150500140186   0.151298530117   0.152011544693   
      0.152630616778   0.153148145774   0.153557665476   0.153853988588   0.154033323577   
      0.154093360525   0.154033323577   0.153853988588   0.153557665476   0.153148145774   
      0.152630616778   0.152011544693   0.151298530117   0.150500140186   0.149625722591   
      0.148685207422   0.147688903365   0.146647295019   0.145570848026   0.144469828247   
      0.143354140395   0.142233190402   0.141115774445   0.14000999609   0.138923211539   
      0.137862001663   0.136832168378   0.135838752093   0.134886066464   0.133977746484   
      0.133116805981   0.13230570091   0.131546395255   0.130840426857   0.130188971095   
      0.129592900839   0.129052841617   0.128569221368   0.128142314471   0.127772280031   