<?xml version="1.0"?>
<VTKFile type="ImageData" version="0.1" byte_order="LittleEndian">
  <ImageData WholeExtent="0 79 0 19 0 19" Origin="0 0 0" Spacing="1 1 1">
  <Piece Extent="0 79 0 19 0 19">
    <PointData Scalars="density">
       <DataArray type="Float32" Name="reddensity" NumberOfComponents="1" format="ascii">
      0   0   0   0   0   
      0   0   0   0   0   
      0   0   0   0   0   
      0   0   0   0   0   
      0   0   0   0   0   
      0   0   0   0   0   
      0   0   0   0   0   
      0   0   0   0   0   
      0   0   0   0   0   
      0   0   0   0   0   
      0   0   0   0   0   
      0   0   0   0   0   
      0   0   0   0   0   
      0   0   0   0   0   
      0   0   0   0   0   
      0   0   0   0   0   
      0   0   0   0   0   
      0   0   0   0   0   
      0   0   0   0   0   
      0   0   0   0   0   
      0   0   0   0   0   
      0   0   0   0   0   
      0   0   0   0   0   
      0   0   0   0   0   
      0   0   0   0   0   
      0   0   0   0   0   
      0   0   0   0   0   
      0   0   0   0   0   
      0   0   0   0   0   
      0   0   0   0   0   
      0   0   0   0   0   
      0   0   0   0   0   
      0   0   0   0   0   
      0   0   0   0   0   
      0   0   0   0   0   
      0   0   0   0   0   
      0   0   0   0   0   
      0   0   0   0   0   
      0   0   0   0   0   
      0   0   0   0   0   
      0   0   0   0   0   
      0   0   0   0   0   
      0   0   0   0   0   
      0   0   0   0   0   
      0   0   0   0   0   
      0   0   0   0   0   
      0   0   0   0   0   
      0   0   0   0   0   
      0   0   0   0   0   
      0   0   0   0   0   
      0   0   0   0   0   
      0   0   0   0   0   
      0   0   0   0   0   
      0   0   0   0   0   
      0   0   0   0   0   
      0   0   0   0   0   
      0   0   0   0   0   
      0   0   0   0   0   
      0   0   0   0   0   
      0   0   0   0   0   
      0   0   0   0   0   
      0   0   0   0   0   
      0   0   0   0   0   
      0   0   0   0   0   
      0   0   0   0   0   
      0   0   0   0   0   
      0   0   0   0   0   
      0   0   0   0   0   
      0   0   0   0   0   
      0   0   0   0   0   
      0   0   0   0   0   
      0   0   0   0   0   
      0   0   0   0   0   
      0   0   0   0   0   
      0   0   0   0   0   
      0   0   0   0   0   
      0   0   0   0   0   
      0   0   0   0   0   
      0   0   0   0   0   
      0   0   0   0   0   
      0   0   0   0   0   
      0   0   0   0   0   
      0   0   0   0   0   
      0   0   0   0   0   
      0   0   0   0   0   
      0   0   0   0   0   
      0   0   0   0   0   
      0   0   0   0   0   
      0   0   0   0   0   
      0   0   0   0   0   
      0   0   0   0   0   
      0   0   0   0   0   
      0   0   0   0   0   
      0   0   0   0   0   
      0   0   0   0   0   
      0   0   0   0   0   
      0   0   0   0   0   
      0   0   0   0   0   
      0   0   0   0   0   
      0   0   0   0   0   
      0   0   0   0   0   
      0   0   0   0   0   
      0   0   0   0   0   
      0   0   0   0   0   
      0   0   0   0   0   
      0   0   0   0   0   
      0   0   0   0   0   
      0   0   0   0   0   
      0   0   0   0   0   
      0   0   0   0   0   
      0   0   0   0   0   
      0   0   0   0   0   
      0   0   0   0   0   
      0   0   0   0   0   
      0   0   0   0   0   
      0   0   0   0   0   
      0   0   0   0   0   
      0   0   0   0   0   
      0   0   0   0   0   
      0   0   0   0   0   
      0   0   0   0   0   
      0   0   0   0   0   
      0   0   0   0   0   
      0   0   0   0   0   
      0   0   0   0   0   
      0   0   0   0   0   
      0   0   0   0   0   
      0   0   0   0   0   
      0   0   0   0   0   
      0   0   0   0   0   
      0   0   0   0   0   
      0   0   0   0   0   
      0   0   0   0   0   
      0   0   0   0   0   
      0   0   0   0   0   
      0   0   0   0   0   
      0   0   0   0   0   
      0   0   0   0   0   
      0   0   0   0   0   
      0   0   0   0   0   
      0   0   0   0   0   
      0   0   0   0   0   
      0   0   0   0   0   
      0   0   0   0   0   
      0   0   0   0   0   
      0   0   0   0   0   
      0   0   0   0   0   
      0   0   0   0   0   
      0   0   0   0   0   
      0   0   0   0   0   
      0   0   0   0   0   
      0   0   0   0   0   
      0   0   0   0   0   
      0   0   0   0   0   
      0   0   0   0   0   
      0   0   0   0   0   
      0   0   0   0   0   
      0   0   0   0   0   
      0   0   0   0   0   
      0   0   0   0   0   
      0   0   0   0   0   
      0   0   0   0   0   
      0   0   0   0   0   
      0   0   0   0   0   
      0   0   0   0   0   
      0   0   0   0   0   
      0   0   0   0   0   
      0   0   0   0   0   
      0   0   0   0   0   
      0   0   0   0   0   
      0   0   0   0   0   
      0   0   0   0   0   
      0   0   0   0   0   
      0   0   0   0   0   
      0   0   0   0   0   
      0   0   0   0   0   
      0   0   0   0   0   
      0   0   0   0   0   
      0   0   0   0   0   
      0   0   0   0   0   
      0   0   0   0   0   
      0   0   0   0   0   
      0   0   0   0   0   
      0   0   0   0   0   
      0   0   0   0   0   
      0   0   0   0   0   
      0   0   0   0   0   
      0   0   0   0   0   
      0   0   0   0   0   
      0   0   0   0   0   
      0   0   0   0   0   
      0   0   0   0   0   
      0   0   0   0   0   
      0   0   0   0   0   
      0   0   0   0   0   
      0   0   0   0   0   
      0   0   0   0   0   
      0   0   0   0   0   
      0   0   0   0   0   
      0   0   0   0   0   
      0   0   0   0   0   
      0   0   0   0   0   
      0   0   0   0   0   
      0   0   0   0   0   
      0   0   0   0   0   
      0   0   0   0   0   
      0   0   0   0   0   
      0   0   0   0   0   
      0   0   0   0   0   
      0   0   0   0   0   
      0   0   0   0   0   
      0   0   0   0   0   
      0   0   0   0   0   
      0   0   0   0   0   
      0   0   0   0   0   
      0   0   0   0   0   
      0   0   0   0   0   
      0   0   0   0   0   
      0   0   0   0   0   
      0   0   0   0   0   
      0   0   0   0   0   
      0   0   0   0   0   
      0   0   0   0   0   
      0   0   0   0   0   
      0   0   0   0   0   
      0   0   0   0   0   
      0   0   0   0   0   
      0   0   0   0   0   
      0   0   0   0   0   
      0   0   0   0   0   
      0   0   0   0   0   
      0   0   0   0   0   
      0   0   0   0   0   
      0   0   0   0   0   
      0   0   0   0   0   
      0   0   0   0   0   
      0   0   0   0   0   
      0   0   0   0   0   
      0   0   0   0   0   
      0   0   0   0   0   
      0   0   0   0   0   
      0   0   0   0   0   
      0   0   0   0   0   
      0   0   0   0   0   
      0   0   0   0   0   
      0   0   0   0   0   
      0   0   0   0   0   
      0   0   0   0   0   
      0   0   0   0   0   
      0   0   0   0   0   
      0   0   0   0   0   
      0   0   0   0   0   
      0   0   0   0   0   
      0   0   0   0   0   
      0   0   0   0   0   
      0   0   0   0   0   
      0   0   0   0   0   
      0   0   0   0   0   
      0   0   0   0   0   
      0   0   0   0   0   
      0   0   0   0   0   
      0   0   0   0   0   
      0   0   0   0   0   
      0   0   0   0   0   
      0   0   0   0   0   
      0   0   0   0   0   
      0   0   0   0   0   
      0   0   0   0   0   
      0   0   0   0   0   
      0   0   0   0   0   
      0   0   0   0   0   
      0   0   0   0   0   
      0   0   0   0   0   
      0   0   0   0   0   
      0   0   0   0   0   
      0   0   0   0   0   
      0   0   0   0   0   
      0   0   0   0   0   
      0   0   0   0   0   
      0   0   0   0   0   
      0   0   0   0   0   
      0   0   0   0   0   
      0   0   0   0   0   
      0   0   0   0   0   
      0   0   0   0   0   
      0   0   0   0   0   
      0   0   0   0   0   
      0   0   0   0   0   
      0   0   0   0   0   
      0   0   0   0   0   
      0   0   0   0   0   
      0   0   0   0   0   
      0   0   0   0   0   
      0   0   0   0   0   
      0   0   0   0   0   
      0   0   0   0   0   
      0   0   0   0   0   
      0   0   0   0   0   
      0   0   0   0   0   
      0   0   0   0   0   
      0   0   0   0   0   
      0   0   0   0   0   
      0   0   0   0   0   
      0   0   0   0   0   
      0   0   0   0   0   
      0   0   0   0   0   
      0   0   0   0   0   
      0   0   0   0   0   
      0   0   0   0   0   
      0   0   0   0   0   
      0   0   0   0   0   
      0   0   0   0   0   
      0   0   0   0   0   
      0   0   0   0   0   
      0   0   0   0   0   
      0   0   0   0   0   
      0   0   0   0   0   
      0   0   0   0   0   
      0   0   0   0   0   
      0   0   0   0   0   
      0   0   0   0   0   
      0   0   0   0   0   
      0   0   0   0   0   
      0   0   0   0   0   
      0   0   0   0   0   
      0   0   0   0   0   
      0   0   0   0   0   
      0   0   0   0   0   
      0   0   0   0   0   
      0   0   0   0   0   
      0   0   0   0   0   
      0   0   0   0   0   
      0   0   0   0   0   
      0   0   0   0   0   
      0   0   0   0   0   
      0   0   0   0   0   
      0.084595344914   0.0845978540357   0.0846053712797   0.0846178662411   0.0846352881086   
      0.084657565465   0.0846846060177   0.0847162962718   0.0847525011565   0.0847930636248   
      0.0848378042444   0.0848865208054   0.0849389879697   0.0849949569931   0.0850541555529   
      0.0851162877158   0.0851810340821   0.085248052147   0.0853169769136   0.085387421798   
      0.0854589798595   0.0855312253875   0.085603715871   0.0856759943696   0.0857475922951   
      0.0858180326052   0.0858868333954   0.0859535118672   0.0860175886326   0.0860785923058   
      0.0861360643154   0.0861895638628   0.0862386729368   0.08628300129   0.0863221912724   
      0.0863559224192   0.0863839156858   0.0864059372304   0.0864218016501   0.0864313745901   
      0.0864345746575   0.0864313745901   0.0864218016501   0.0864059372304   0.0863839156858   
      0.0863559224192   0.0863221912724   0.08628300129   0.0862386729368   0.0861895638628   
      0.0861360643154   0.0860785923058   0.0860175886326   0.0859535118672   0.0858868333954   
      0.0858180326052   0.0857475922951   0.0856759943696   0.085603715871   0.0855312253875   
      0.0854589798595   0.085387421798   0.0853169769136   0.085248052147   0.0851810340821   
      0.0851162877158   0.0850541555529   0.0849949569931   0.0849389879697   0.0848865208054   
      0.0848378042444   0.0847930636248   0.0847525011565   0.0847162962718   0.0846846060177   
      0.084657565465   0.0846352881086   0.0846178662411   0.0846053712797   0.0845978540357   
      0.0935696874017   0.0935732905891   0.0935840857598   0.0936020296768   0.093627050069   
      0.0936590453242   0.0936978840762   0.0937434046997   0.0937954147348   0.0938536902656   
      0.0939179752835   0.0939879810698   0.0940633856377   0.0941438332773   0.0942289342531   
      0.0943182647041   0.0944113668035   0.0945077492317   0.0946068880208   0.0947082278238   
      0.0948111836605   0.094915143186   0.095019469518   0.0951235046517   0.0952265734754   
      0.0953279883878   0.0954270544973   0.0955230753698   0.0956153592681   0.0957032258081   
      0.0957860129383   0.0958630841297   0.0959338356486   0.0959977037727   0.0960541718008   
      0.096102776704   0.0961431152649   0.0961748495604   0.0961977116524   0.0962115073681   
      0.0962161190738   0.0962115073681   0.0961977116524   0.0961748495604   0.0961431152649   
      0.096102776704   0.0960541718008   0.0959977037727   0.0959338356486   0.0958630841297   
      0.0957860129383   0.0957032258081   0.0956153592681   0.0955230753698   0.0954270544973   
      0.0953279883878   0.0952265734754   0.0951235046517   0.095019469518   0.094915143186   
      0.0948111836605   0.0947082278238   0.0946068880208   0.0945077492317   0.0944113668035   
      0.0943182647041   0.0942289342531   0.0941438332773   0.0940633856377   0.0939879810698   
      0.0939179752835   0.0938536902656   0.0937954147348   0.0937434046997   0.0936978840762   
      0.0936590453242   0.093627050069   0.0936020296768   0.0935840857598   0.0935732905891   
      0.109114025147   0.109119916879   0.109137568713   0.109166910447   0.10920782472   
      0.109260146473   0.10932366224   0.109398109264   0.109483174507   0.10957849356   
      0.109683649542   0.109798172012   0.109921535991   0.110053161148   0.110192411245   
      0.110338593918   0.110490960896   0.110648708738   0.110810980201   0.110976866307   
      0.11114540921   0.11131560593   0.111486413017   0.111656752186   0.111825516944   
      0.111991580209   0.112153802885   0.112311043331   0.112462167635   0.112606060563   
      0.112741637021   0.112867853862   0.112983721804   0.113088317251   0.113180793759   
      0.113260392908   0.11332645433   0.113378424653   0.11341586515   0.113438457905   
      0.113446010325   0.113438457905   0.11341586515   0.113378424653   0.11332645433   
      0.113260392908   0.113180793759   0.113088317251   0.112983721804   0.112867853862   
      0.112741637021   0.112606060563   0.112462167635   0.112311043331   0.112153802885   
      0.111991580209   0.111825516944   0.111656752186   0.111486413017   0.11131560593   
      0.11114540921   0.110976866307   0.110810980201   0.110648708738   0.110490960896   
      0.110338593918   0.110192411245   0.110053161148   0.109921535991   0.109798172012   
      0.109683649542   0.10957849356   0.109483174507   0.109398109264   0.10932366224   
      0.109260146473   0.10920782472   0.109166910447   0.109137568713   0.109119916879   
      0.122246125419   0.122254480331   0.122279511822   0.122321120003   0.122379137869   
      0.122453330536   0.122543394217   0.122648954966   0.122769567252   0.12290471242   
      0.123053797119   0.123216151781   0.123391029253   0.123577603679   0.123774969769   
      0.123982142561   0.124198057824   0.124421573212   0.12465147033   0.124886457807   
      0.12512517551   0.125366199996   0.125608051276   0.125849200944   0.126088081699   
      0.126323098242   0.126552639492   0.126775092027   0.126988854612   0.127192353635   
      0.12738405921   0.127562501715   0.127726288436   0.127874120038   0.128004806491   
      0.128117282149   0.128210619617   0.128284042108   0.128336933995   0.128368849293   
      0.128379517881   0.128368849293   0.128336933995   0.128284042108   0.128210619617   
      0.128117282149   0.128004806491   0.127874120038   0.127726288436   0.127562501715   
      0.12738405921   0.127192353635   0.126988854612   0.126775092027   0.126552639492   
      0.126323098242   0.126088081699   0.125849200944   0.125608051276   0.125366199996   
      0.12512517551   0.124886457807   0.12465147033   0.124421573212   0.124198057824   
      0.123982142561   0.123774969769   0.123577603679   0.123391029253   0.123216151781   
      0.123053797119   0.12290471242   0.122769567252   0.122648954966   0.122543394217   
      0.122453330536   0.122379137869   0.122321120003   0.122279511822   0.122254480331   
      0.134627598859   0.134638403852   0.134670775382   0.13472458289   0.134799608116   
      0.134895544131   0.135011994032   0.135148469362   0.135304388316   0.135479073826   
      0.135671751613   0.135881548337   0.136107489967   0.136348500507   0.136603401247   
      0.136870910686   0.137149645301   0.137438121333   0.137734757745   0.138037880513   
      0.138345728385   0.138656460233   0.138968164074   0.139278867825   0.139586551792   
      0.139889162876   0.140184630397   0.140470883403   0.14074586929   0.141007573465   
      0.141254039785   0.141483391439   0.141693851889   0.141883765497   0.14205161742   
      0.14219605237   0.142315891821   0.142410149309   0.142478043461   0.142519008461   
      0.142532701702   0.142519008461   0.142478043461   0.142410149309   0.142315891821   
      0.14219605237   0.14205161742   0.141883765497   0.141693851889   0.141483391439   
      0.141254039785   0.141007573465   0.14074586929   0.140470883403   0.140184630397   
      0.139889162876   0.139586551792   0.139278867825   0.138968164074   0.138656460233   
      0.138345728385   0.138037880513   0.137734757745   0.137438121333   0.137149645301   
      0.136870910686   0.136603401247   0.136348500507   0.136107489967   0.135881548337   
      0.135671751613   0.135479073826   0.135304388316   0.135148469362   0.135011994032   
      0.134895544131   0.134799608116   0.13472458289   0.134670775382   0.134638403852   
      0.145339665398   0.145352575747   0.145391254084   0.145455542047   0.145545174938   
      0.145659780611   0.145798877984   0.14596187524   0.146148067804   0.146356636199   
      0.146586643906   0.14683703537   0.147106634304   0.147394142473   0.147698139129   
      0.148017081295   0.148349305093   0.148693028314   0.1490463544   0.149407278034   
      0.149773692471   0.150143398734   0.150514116773   0.150883498619   0.151249143522   
      0.151608615031   0.151959459883   0.152299228519   0.152625497018   0.152935890118   
      0.153228105022   0.153499935579   0.153749296423   0.153974246643   0.154173012513   
      0.154344008838   0.154485858489   0.154597409694   0.154677750744   0.154726221769   
      0.154742423353   0.154726221769   0.154677750744   0.154597409694   0.154485858489   
      0.154344008838   0.154173012513   0.153974246643   0.153749296423   0.153499935579   
      0.153228105022   0.152935890118   0.152625497018   0.152299228519   0.151959459883   
      0.151608615031   0.151249143522   0.150883498619   0.150514116773   0.150143398734   
      0.149773692471   0.149407278034   0.1490463544   0.148693028314   0.148349305093   
      0.148017081295   0.147698139129   0.147394142473   0.147106634304   0.14683703537   
      0.146586643906   0.146356636199   0.146148067804   0.14596187524   0.145798877984   
      0.145659780611   0.145545174938   0.145455542047   0.145391254084   0.145352575747   
      0.153748492415   0.153763003553   0.153806476787   0.153878731331   0.153979465058   
      0.154108253312   0.154264547328   0.154447672327   0.154656825394   0.154891073258   
      0.155149350112   0.155430455641   0.155733053427   0.156055669933   0.156396694266   
      0.15675437893   0.157126841793   0.157512069457   0.157907922247   0.158312140999   
      0.158722355781   0.15913609669   0.159550806773   0.159963857128   0.16037256413   
      0.160774208704   0.161166057499   0.16154538574   0.161909501487   0.16225577098   
      0.162581644675   0.162884683576   0.163162585386   0.163413210032   0.163634604082   
      0.16382502359   0.163982954917   0.164107133125   0.164196557572   0.164250504378   
      0.164268535521   0.164250504378   0.164196557572   0.164107133125   0.163982954917   
      0.16382502359   0.163634604082   0.163413210032   0.163162585386   0.162884683576   
      0.162581644675   0.16225577098   0.161909501487   0.16154538574   0.161166057499   
      0.160774208704   0.16037256413   0.159963857128   0.159550806773   0.15913609669   
      0.158722355781   0.158312140999   0.157907922247   0.157512069457   0.157126841793   
      0.15675437893   0.156396694266   0.156055669933   0.155733053427   0.155430455641   
      0.155149350112   0.154891073258   0.154656825394   0.154447672327   0.154264547328   
      0.154108253312   0.153979465058   0.153878731331   0.153806476787   0.153763003553   
      0.159461003253   0.159476562631   0.159523175416   0.159600645314   0.159708644324   
      0.159846711533   0.160014251495   0.160210532302   0.160434683454   0.160685693642   
      0.160962408621   0.161263529333   0.161587610476   0.161933059728   0.16229813784   
      0.162680959822   0.163079497455   0.163491583333   0.163914916638   0.164347070849   
      0.164785503496   0.165227568112   0.165670528409   0.166111574714   0.166547842593   
      0.166976433579   0.167394437791   0.167798958244   0.168187136523   0.168556179471   
      0.168903386512   0.169226177138   0.169522118134   0.169788950033   0.170024612348   
      0.170227267103   0.170395320228   0.170527440406   0.170622575024   0.1706799629   
      0.170699143566   0.1706799629   0.170622575024   0.170527440406   0.170395320228   
      0.170227267103   0.170024612348   0.169788950033   0.169522118134   0.169226177138   
      0.168903386512   0.168556179471   0.168187136523   0.167798958244   0.167394437791   
      0.166976433579   0.166547842593   0.166111574714   0.165670528409   0.165227568112   
      0.164785503496   0.164347070849   0.163914916638   0.163491583333   0.163079497455   
      0.162680959822   0.16229813784   0.161933059728   0.161587610476   0.161263529333   
      0.160962408621   0.160685693642   0.160434683454   0.160210532302   0.160014251495   
      0.159846711533   0.159708644324   0.159600645314   0.159523175416   0.159476562631   
      0.162332421401   0.162348493217   0.162396640693   0.162476659648   0.162588208942   
      0.162730809253   0.162903841458   0.163106544709   0.163338014306   0.163597199517   
      0.163882901498   0.164193771495   0.16452830953   0.164884863777   0.165261630861   
      0.165656657306   0.166067842354   0.166492942385   0.166929577134   0.167375237882   
      0.167827297775   0.168283024365   0.16873959444   0.169194111129   0.169643623229   
      0.170085146628   0.170515687637   0.170932267967   0.171331951056   0.171711869363   
      0.172069252236   0.172401453898   0.172705981088   0.172980519884   0.173222961227   
      0.173431424687   0.173604280041   0.17374016625   0.173838007503   0.173897026013   
      0.173916751332   0.173897026013   0.173838007503   0.17374016625   0.173604280041   
      0.173431424687   0.173222961227   0.172980519884   0.172705981088   0.172401453898   
      0.172069252236   0.171711869363   0.171331951056   0.170932267967   0.170515687637   
      0.170085146628   0.169643623229   0.169194111129   0.16873959444   0.168283024365   
      0.167827297775   0.167375237882   0.166929577134   0.166492942385   0.166067842354   
      0.165656657306   0.165261630861   0.164884863777   0.16452830953   0.164193771495   
      0.163882901498   0.163597199517   0.163338014306   0.163106544709   0.162903841458   
      0.162730809253   0.162588208942   0.162476659648   0.162396640693   0.162348493217   
      0.162332421401   0.162348493217   0.162396640693   0.162476659648   0.162588208942   
      0.162730809253   0.162903841458   0.163106544709   0.163338014306   0.163597199517   
      0.163882901498   0.164193771495   0.16452830953   0.164884863777   0.165261630861   
      0.165656657306   0.166067842354   0.166492942385   0.166929577134   0.167375237882   
      0.167827297775   0.168283024365   0.16873959444   0.169194111129   0.169643623229   
      0.170085146628   0.170515687637   0.170932267967   0.171331951056   0.171711869363   
      0.172069252236   0.172401453898   0.172705981088   0.172980519884   0.173222961227   
      0.173431424687   0.173604280041   0.17374016625   0.173838007503   0.173897026013   
      0.173916751332   0.173897026013   0.173838007503   0.17374016625   0.173604280041   
      0.173431424687   0.173222961227   0.172980519884   0.172705981088   0.172401453898   
      0.172069252236   0.171711869363   0.171331951056   0.170932267967   0.170515687637   
      0.170085146628   0.169643623229   0.169194111129   0.16873959444   0.168283024365   
      0.167827297775   0.167375237882   0.166929577134   0.166492942385   0.166067842354   
      0.165656657306   0.165261630861   0.164884863777   0.16452830953   0.164193771495   
      0.163882901498   0.163597199517   0.163338014306   0.163106544709   0.162903841458   
      0.162730809253   0.162588208942   0.162476659648   0.162396640693   0.162348493217   
      0.159461003253   0.159476562631   0.159523175416   0.159600645314   0.159708644324   
      0.159846711533   0.160014251495   0.160210532302   0.160434683454   0.160685693642   
      0.160962408621   0.161263529333   0.161587610476   0.161933059728   0.16229813784   
      0.162680959822   0.163079497455   0.163491583333   0.163914916638   0.164347070849   
      0.164785503496   0.165227568112   0.165670528409   0.166111574714   0.166547842593   
      0.166976433579   0.167394437791   0.167798958244   0.168187136523   0.168556179471   
      0.168903386512   0.169226177138   0.169522118134   0.169788950033   0.170024612348   
      0.170227267103   0.170395320228   0.170527440406   0.170622575024   0.1706799629   
      0.170699143566   0.1706799629   0.170622575024   0.170527440406   0.170395320228   
      0.170227267103   0.170024612348   0.169788950033   0.169522118134   0.169226177138   
      0.168903386512   0.168556179471   0.168187136523   0.167798958244   0.167394437791   
      0.166976433579   0.166547842593   0.166111574714   0.165670528409   0.165227568112   
      0.164785503496   0.164347070849   0.163914916638   0.163491583333   0.163079497455   
      0.162680959822   0.16229813784   0.161933059728   0.161587610476   0.161263529333   
      0.160962408621   0.160685693642   0.160434683454   0.160210532302   0.160014251495   
      0.159846711533   0.159708644324   0.159600645314   0.159523175416   0.159476562631   
      0.153748492415   0.153763003553   0.153806476787   0.153878731331   0.153979465058   
      0.154108253312   0.154264547328   0.154447672327   0.154656825394   0.154891073258   
      0.155149350112   0.155430455641   0.155733053427   0.156055669933   0.156396694266   
      0.15675437893   0.157126841793   0.157512069457   0.157907922247   0.158312140999   
      0.158722355781   0.15913609669   0.159550806773   0.159963857128   0.16037256413   
      0.160774208704   0.161166057499   0.16154538574   0.161909501487   0.16225577098   
      0.162581644675   0.162884683576   0.163162585386   0.163413210032   0.163634604082   
      0.16382502359   0.163982954917   0.164107133125   0.164196557572   0.164250504378   
      0.164268535521   0.164250504378   0.164196557572   0.164107133125   0.163982954917   
      0.16382502359   0.163634604082   0.163413210032   0.163162585386   0.162884683576   
      0.162581644675   0.16225577098   0.161909501487   0.16154538574   0.161166057499   
      0.160774208704   0.16037256413   0.159963857128   0.159550806773   0.15913609669   
      0.158722355781   0.158312140999   0.157907922247   0.157512069457   0.157126841793   
      0.15675437893   0.156396694266   0.156055669933   0.155733053427   0.155430455641   
      0.155149350112   0.154891073258   0.154656825394   0.154447672327   0.154264547328   
      0.154108253312   0.153979465058   0.153878731331   0.153806476787   0.153763003553   
      0.145339665398   0.145352575747   0.145391254084   0.145455542047   0.145545174938   
      0.145659780611   0.145798877984   0.14596187524   0.146148067804   0.146356636199   
      0.146586643906   0.14683703537   0.147106634304   0.147394142473   0.147698139129   
      0.148017081295   0.148349305093   0.148693028314   0.1490463544   0.149407278034   
      0.149773692471   0.150143398734   0.150514116773   0.150883498619   0.151249143522   
      0.151608615031   0.151959459883   0.152299228519   0.152625497018   0.152935890118   
      0.153228105022   0.153499935579   0.153749296423   0.153974246643   0.154173012513   
      0.154344008838   0.154485858489   0.154597409694   0.154677750744   0.154726221769   
      0.154742423353   0.154726221769   0.154677750744   0.154597409694   0.154485858489   
      0.154344008838   0.154173012513   0.153974246643   0.153749296423   0.153499935579   
      0.153228105022   0.152935890118   0.152625497018   0.152299228519   0.151959459883   
      0.151608615031   0.151249143522   0.150883498619   0.150514116773   0.150143398734   
      0.149773692471   0.149407278034   0.1490463544   0.148693028314   0.148349305093   
      0.148017081295   0.147698139129   0.147394142473   0.147106634304   0.14683703537   
      0.146586643906   0.146356636199   0.146148067804   0.14596187524   0.145798877984   
      0.145659780611   0.145545174938   0.145455542047   0.145391254084   0.145352575747   
      0.134627598859   0.134638403852   0.134670775382   0.13472458289   0.134799608116   
      0.134895544131   0.135011994032   0.135148469362   0.135304388316   0.135479073826   
      0.135671751613   0.135881548337   0.136107489967   0.136348500507   0.136603401247   
      0.136870910686   0.137149645301   0.137438121333   0.137734757745   0.138037880513   
      0.138345728385   0.138656460233   0.138968164074   0.139278867825   0.139586551792   
      0.139889162876   0.140184630397   0.140470883403   0.14074586929   0.141007573465   
      0.141254039785   0.141483391439   0.141693851889   0.141883765497   0.14205161742   
      0.14219605237   0.142315891821   0.142410149309   0.142478043461   0.142519008461   
      0.142532701702   0.142519008461   0.142478043461   0.142410149309   0.142315891821   
      0.14219605237   0.14205161742   0.141883765497   0.141693851889   0.141483391439   
      0.141254039785   0.141007573465   0.14074586929   0.140470883403   0.140184630397   
      0.139889162876   0.139586551792   0.139278867825   0.138968164074   0.138656460233   
      0.138345728385   0.138037880513   0.137734757745   0.137438121333   0.137149645301   
      0.136870910686   0.136603401247   0.136348500507   0.136107489967   0.135881548337   
      0.135671751613   0.135479073826   0.135304388316   0.135148469362   0.135011994032   