<?xml version="1.0"?>
<VTKFile type="ImageData" version="0.1" byte_order="LittleEndian">
  <ImageData WholeExtent="0 79 0 19 0 19" Origin="0 0 0" Spacing="1 1 1">
  <Piece Extent="0 79 0 19 0 19">
    <PointData Scalars="density">
       <DataArray type="Float32" Name="reddensity" NumberOfComponents="1" format="ascii">
      0   0   0   0   0   
      0   0   0   0   0   
      0   0   0   0   0   
      0   0   0   0   0   
      0   0   0   0   0   
      0   0   0   0   0   
      0   0   0   0   0   
      0   0   0   0   0   
      0   0   0   0   0   
      0   0   0   0   0   
      0   0   0   0   0   
      0   0   0   0   0   
      0   0   0   0   0   
      0   0   0   0   0   
      0   0   0   0   0   
      0   0   0   0   0   
      0   0   0   0   0   
      0   0   0   0   0   
      0   0   0   0   0   
      0   0   0   0   0   
      0   0   0   0   0   
      0   0   0   0   0   
      0   0   0   0   0   
      0   0   0   0   0   
      0   0   0   0   0   
      0   0   0   0   0   
      0   0   0   0   0   
      0   0   0   0   0   
      0   0   0   0   0   
      0   0   0   0   0   
      0   0   0   0   0   
      0   0   0   0   0   
      0   0   0   0   0   
      0   0   0   0   0   
      0   0   0   0   0   
      0   0   0   0   0   
      0   0   0   0   0   
      0   0   0   0   0   
      0   0   0   0   0   
      0   0   0   0   0   
      0   0   0   0   0   
      0   0   0   0   0   
      0   0   0   0   0   
      0   0   0   0   0   
      0   0   0   0   0   
      0   0   0   0   0   
      0   0   0   0   0   
      0   0   0   0   0   
      0   0   0   0   0   
      0   0   0   0   0   
      0   0   0   0   0   
      0   0   0   0   0   
      0   0   0   0   0   
      0   0   0   0   0   
      0   0   0   0   0   
      0   0   0   0   0   
      0   0   0   0   0   
      0   0   0   0   0   
      0   0   0   0   0   
      0   0   0   0   0   
      0   0   0   0   0   
      0   0   0   0   0   
      0   0   0   0   0   
      0   0   0   0   0   
      0   0   0   0   0   
      0   0   0   0   0   
      0   0   0   0   0   
      0   0   0   0   0   
      0   0   0   0   0   
      0   0   0   0   0   
      0   0   0   0   0   
      0   0   0   0   0   
      0   0   0   0   0   
      0   0   0   0   0   
      0   0   0   0   0   
      0   0   0   0   0   
      0   0   0   0   0   
      0   0   0   0   0   
      0   0   0   0   0   
      0   0   0   0   0   
      0   0   0   0   0   
      0   0   0   0   0   
      0   0   0   0   0   
      0   0   0   0   0   
      0   0   0   0   0   
      0   0   0   0   0   
      0   0   0   0   0   
      0   0   0   0   0   
      0   0   0   0   0   
      0   0   0   0   0   
      0   0   0   0   0   
      0   0   0   0   0   
      0   0   0   0   0   
      0   0   0   0   0   
      0   0   0   0   0   
      0   0   0   0   0   
      0   0   0   0   0   
      0   0   0   0   0   
      0   0   0   0   0   
      0   0   0   0   0   
      0   0   0   0   0   
      0   0   0   0   0   
      0   0   0   0   0   
      0   0   0   0   0   
      0   0   0   0   0   
      0   0   0   0   0   
      0   0   0   0   0   
      0   0   0   0   0   
      0   0   0   0   0   
      0   0   0   0   0   
      0   0   0   0   0   
      0   0   0   0   0   
      0   0   0   0   0   
      0   0   0   0   0   
      0   0   0   0   0   
      0   0   0   0   0   
      0   0   0   0   0   
      0   0   0   0   0   
      0   0   0   0   0   
      0   0   0   0   0   
      0   0   0   0   0   
      0   0   0   0   0   
      0   0   0   0   0   
      0   0   0   0   0   
      0   0   0   0   0   
      0   0   0   0   0   
      0   0   0   0   0   
      0   0   0   0   0   
      0   0   0   0   0   
      0   0   0   0   0   
      0   0   0   0   0   
      0   0   0   0   0   
      0   0   0   0   0   
      0   0   0   0   0   
      0   0   0   0   0   
      0   0   0   0   0   
      0   0   0   0   0   
      0   0   0   0   0   
      0   0   0   0   0   
      0   0   0   0   0   
      0   0   0   0   0   
      0   0   0   0   0   
      0   0   0   0   0   
      0   0   0   0   0   
      0   0   0   0   0   
      0   0   0   0   0   
      0   0   0   0   0   
      0   0   0   0   0   
      0   0   0   0   0   
      0   0   0   0   0   
      0   0   0   0   0   
      0   0   0   0   0   
      0   0   0   0   0   
      0   0   0   0   0   
      0   0   0   0   0   
      0   0   0   0   0   
      0   0   0   0   0   
      0   0   0   0   0   
      0   0   0   0   0   
      0   0   0   0   0   
      0   0   0   0   0   
      0   0   0   0   0   
      0   0   0   0   0   
      0   0   0   0   0   
      0   0   0   0   0   
      0   0   0   0   0   
      0   0   0   0   0   
      0   0   0   0   0   
      0   0   0   0   0   
      0   0   0   0   0   
      0   0   0   0   0   
      0   0   0   0   0   
      0   0   0   0   0   
      0   0   0   0   0   
      0   0   0   0   0   
      0   0   0   0   0   
      0   0   0   0   0   
      0   0   0   0   0   
      0   0   0   0   0   
      0   0   0   0   0   
      0   0   0   0   0   
      0   0   0   0   0   
      0   0   0   0   0   
      0   0   0   0   0   
      0   0   0   0   0   
      0   0   0   0   0   
      0   0   0   0   0   
      0   0   0   0   0   
      0   0   0   0   0   
      0   0   0   0   0   
      0   0   0   0   0   
      0   0   0   0   0   
      0   0   0   0   0   
      0   0   0   0   0   
      0   0   0   0   0   
      0   0   0   0   0   
      0   0   0   0   0   
      0   0   0   0   0   
      0   0   0   0   0   
      0   0   0   0   0   
      0   0   0   0   0   
      0   0   0   0   0   
      0   0   0   0   0   
      0   0   0   0   0   
      0   0   0   0   0   
      0   0   0   0   0   
      0   0   0   0   0   
      0   0   0   0   0   
      0   0   0   0   0   
      0   0   0   0   0   
      0   0   0   0   0   
      0   0   0   0   0   
      0   0   0   0   0   
      0   0   0   0   0   
      0   0   0   0   0   
      0   0   0   0   0   
      0   0   0   0   0   
      0   0   0   0   0   
      0   0   0   0   0   
      0   0   0   0   0   
      0   0   0   0   0   
      0   0   0   0   0   
      0   0   0   0   0   
      0   0   0   0   0   
      0   0   0   0   0   
      0   0   0   0   0   
      0   0   0   0   0   
      0   0   0   0   0   
      0   0   0   0   0   
      0   0   0   0   0   
      0   0   0   0   0   
      0   0   0   0   0   
      0   0   0   0   0   
      0   0   0   0   0   
      0   0   0   0   0   
      0   0   0   0   0   
      0   0   0   0   0   
      0   0   0   0   0   
      0   0   0   0   0   
      0   0   0   0   0   
      0   0   0   0   0   
      0   0   0   0   0   
      0   0   0   0   0   
      0   0   0   0   0   
      0   0   0   0   0   
      0   0   0   0   0   
      0   0   0   0   0   
      0   0   0   0   0   
      0   0   0   0   0   
      0   0   0   0   0   
      0   0   0   0   0   
      0   0   0   0   0   
      0   0   0   0   0   
      0   0   0   0   0   
      0   0   0   0   0   
      0   0   0   0   0   
      0   0   0   0   0   
      0   0   0   0   0   
      0   0   0   0   0   
      0   0   0   0   0   
      0   0   0   0   0   
      0   0   0   0   0   
      0   0   0   0   0   
      0   0   0   0   0   
      0   0   0   0   0   
      0   0   0   0   0   
      0   0   0   0   0   
      0   0   0   0   0   
      0   0   0   0   0   
      0   0   0   0   0   
      0   0   0   0   0   
      0   0   0   0   0   
      0   0   0   0   0   
      0   0   0   0   0   
      0   0   0   0   0   
      0   0   0   0   0   
      0   0   0   0   0   
      0   0   0   0   0   
      0   0   0   0   0   
      0   0   0   0   0   
      0   0   0   0   0   
      0   0   0   0   0   
      0   0   0   0   0   
      0   0   0   0   0   
      0   0   0   0   0   
      0   0   0   0   0   
      0   0   0   0   0   
      0   0   0   0   0   
      0   0   0   0   0   
      0   0   0   0   0   
      0   0   0   0   0   
      0   0   0   0   0   
      0   0   0   0   0   
      0   0   0   0   0   
      0   0   0   0   0   
      0   0   0   0   0   
      0   0   0   0   0   
      0   0   0   0   0   
      0   0   0   0   0   
      0   0   0   0   0   
      0   0   0   0   0   
      0   0   0   0   0   
      0   0   0   0   0   
      0   0   0   0   0   
      0   0   0   0   0   
      0   0   0   0   0   
      0   0   0   0   0   
      0   0   0   0   0   
      0   0   0   0   0   
      0   0   0   0   0   
      0   0   0   0   0   
      0   0   0   0   0   
      0   0   0   0   0   
      0   0   0   0   0   
      0   0   0   0   0   
      0   0   0   0   0   
      0   0   0   0   0   
      0   0   0   0   0   
      0   0   0   0   0   
      0   0   0   0   0   
      0   0   0   0   0   
      0   0   0   0   0   
      0   0   0   0   0   
      0   0   0   0   0   
      0   0   0   0   0   
      0   0   0   0   0   
      0   0   0   0   0   
      0   0   0   0   0   
      0   0   0   0   0   
      0   0   0   0   0   
      0   0   0   0   0   
      0   0   0   0   0   
      0   0   0   0   0   
      0   0   0   0   0   
      0   0   0   0   0   
      0   0   0   0   0   
      0.0827593589954   0.0827661285379   0.0827864366633   0.0828202815348   0.0828676589778   
      0.0829285607773   0.0830029722262   0.0830908688611   0.0831922123068   0.0833069451388   
      0.0834349846688   0.083576215561   0.0837304811946   0.0838975737163   0.0840772227621   
      0.0842690828837   0.0844727197907   0.0846875956132   0.0849130535028   0.08514830202   
      0.085392399892   0.0856442418683   0.0859025465296   0.0861658470117   0.086432485676   
      0.0867006137681   0.0869681970555   0.0872330282985   0.0874927471976   0.087744868158   
      0.0879868158482   0.0882159681059   0.0884297052937   0.088625464761   0.0888007986584   
      0.0889534330085   0.089081325704   0.0891827209893   0.0892561980175   0.0893007112513   
      0.089315620803   0.0893007112513   0.0892561980175   0.0891827209893   0.089081325704   
      0.0889534330085   0.0888007986584   0.088625464761   0.0884297052937   0.0882159681059   
      0.0879868158482   0.087744868158   0.0874927471976   0.0872330282985   0.0869681970555   
      0.0867006137681   0.086432485676   0.0861658470117   0.0859025465296   0.0856442418683   
      0.085392399892   0.08514830202   0.0849130535028   0.0846875956132   0.0844727197907   
      0.0842690828837   0.0840772227621   0.0838975737163   0.0837304811946   0.083576215561   
      0.0834349846688   0.0833069451388   0.0831922123068   0.0830908688611   0.0830029722262   
      0.0829285607773   0.0828676589778   0.0828202815348   0.0827864366633   0.0827661285379   
      0.0909232223705   0.0909328733956   0.090961827491   0.091010087216   0.0910776551536   
      0.0911645313362   0.0912707095422   0.0913961723695   0.091540884967   0.0917047872954   
      0.0918877847757   0.0920897371913   0.0923104457264   0.0925496380612   0.0928069514998   
      0.0930819141969   0.0933739246547   0.0936822298092   0.0940059021875   0.0943438168133   
      0.0946946287359   0.0950567522657   0.095428343184   0.0958072853432   0.0961911831622   
      0.096577361531   0.0969628745398   0.0973445242421   0.0977188903279   0.0980823711406   
      0.0984312359252   0.0987616875857   0.0990699345803   0.099352269957   0.0996051549608   
      0.0998253041837   0.100009768924   0.100156015286   0.100261993631   0.100326196255   
      0.10034770064   0.100326196255   0.100261993631   0.100156015286   0.100009768924   
      0.0998253041837   0.0996051549608   0.099352269957   0.0990699345803   0.0987616875857   
      0.0984312359252   0.0980823711406   0.0977188903279   0.0973445242421   0.0969628745398   
      0.096577361531   0.0961911831622   0.0958072853432   0.095428343184   0.0950567522657   
      0.0946946287359   0.0943438168133   0.0940059021875   0.0936822298092   0.0933739246547   
      0.0930819141969   0.0928069514998   0.0925496380612   0.0923104457264   0.0920897371913   
      0.0918877847757   0.0917047872954   0.091540884967   0.0913961723695   0.0912707095422   
      0.0911645313362   0.0910776551536   0.091010087216   0.090961827491   0.0909328733956   
      0.104768278918   0.104783955186   0.10483098843   0.104909391105   0.105019181028   
      0.105160376885   0.105332991772   0.105537024607   0.105772449222   0.106039200911   
      0.106337160205   0.106666133665   0.107025831505   0.107415841924   0.107835602168   
      0.108284366438   0.108761171022   0.109264797209   0.109793732898   0.110346134081   
      0.110919787753   0.111512078114   0.112119958211   0.1127399294   0.113368031089   
      0.113999843183   0.114630503437   0.11525474149   0.115866930769   0.116461158669   
      0.117031314496   0.117571193691   0.118074615831   0.118535552999   0.118948264259   
      0.119307431441   0.119608291009   0.119846756755   0.12001952826   0.120124180518   
      0.120159230897   0.120124180518   0.12001952826   0.119846756755   0.119608291009   
      0.119307431441   0.118948264259   0.118535552999   0.118074615831   0.117571193691   
      0.117031314496   0.116461158669   0.115866930769   0.11525474149   0.114630503437   
      0.113999843183   0.113368031089   0.1127399294   0.112119958211   0.111512078114   
      0.110919787753   0.110346134081   0.109793732898   0.109264797209   0.108761171022   
      0.108284366438   0.107835602168   0.107415841924   0.107025831505   0.106666133665   
      0.106337160205   0.106039200911   0.105772449222   0.105537024607   0.105332991772   
      0.105160376885   0.105019181028   0.104909391105   0.10483098843   0.104783955186   
      0.11605250657   0.11607470211   0.116141296586   0.116252312242   0.116407781684   
      0.116607741063   0.116852220277   0.117141229977   0.11747474509   0.117852684545   
      0.118274886913   0.118741081657   0.119250855781   0.119803615795   0.120398545058   
      0.121034556834   0.121710243694   0.122423824272   0.123173088814   0.123955345415   
      0.124767369332   0.125605358149   0.12646489595   0.127340929836   0.128227762162   
      0.129119061627   0.130007895882   0.130886787611   0.131747795017   0.132582616529   
      0.133382718243   0.134139481327   0.134844365416   0.135489082954   0.136065778688   
      0.136567207997   0.136986907604   0.137319352386   0.137560092451   0.137705865397   
      0.137754679592   0.137705865397   0.137560092451   0.137319352386   0.136986907604   
      0.136567207997   0.136065778688   0.135489082954   0.134844365416   0.134139481327   
      0.133382718243   0.132582616529   0.131747795017   0.130886787611   0.130007895882   
      0.129119061627   0.128227762162   0.127340929836   0.12646489595   0.125605358149   
      0.124767369332   0.123955345415   0.123173088814   0.122423824272   0.121710243694   
      0.121034556834   0.120398545058   0.119803615795   0.119250855781   0.118741081657   
      0.118274886913   0.117852684545   0.11747474509   0.117141229977   0.116852220277   
      0.116607741063   0.116407781684   0.116252312242   0.116141296586   0.11607470211   
      0.126573774535   0.126602536752   0.126688833516   0.126832693327   0.127034157483   
      0.127293270624   0.127610067172   0.127984553371   0.12841668457   0.128906337392   
      0.129453276383   0.130057114872   0.130717269805   0.131432910585   0.132202902147   
      0.133025742913   0.133899498675   0.134821733988   0.135789443239   0.136798984141   
      0.137846016959   0.138925453277   0.140031418399   0.141157231573   0.142295408051   
      0.143437686416   0.144575083814   0.145697980511   0.146796233825   0.147859319934   
      0.148876500499   0.149837009653   0.150730255656   0.151546030721   0.152274722005   
      0.152907516711   0.15343659453   0.153855301235   0.15415829807   0.154341682493   
      0.154403076843   0.154341682493   0.15415829807   0.153855301235   0.15343659453   
      0.152907516711   0.152274722005   0.151546030721   0.150730255656   0.149837009653   
      0.148876500499   0.147859319934   0.146796233825   0.145697980511   0.144575083814   
      0.143437686416   0.142295408051   0.141157231573   0.140031418399   0.138925453277   
      0.137846016959   0.136798984141   0.135789443239   0.134821733988   0.133899498675   
      0.133025742913   0.132202902147   0.131432910585   0.130717269805   0.130057114872   
      0.129453276383   0.128906337392   0.12841668457   0.127984553371   0.127610067172   
      0.127293270624   0.127034157483   0.126832693327   0.126688833516   0.126602536752   
      0.135661830342   0.135696351676   0.135799925961   0.135972581685   0.136214358395   
      0.136525294599   0.136905410455   0.137354684896   0.137873026802   0.138460239774   
      0.13911598016   0.139839708027   0.14063063097   0.141487640949   0.142409244656   
      0.143393488456   0.144437879482   0.145539305139   0.146693953957   0.147897241424   
      0.149143745036   0.15042715322   0.151740232975   0.153074820947   0.154421842084   
      0.155771359125   0.157112654826   0.158434347254   0.159724536665   0.160970980705   
      0.162161293017   0.163283159024   0.164324561738   0.165274010066   0.16612076216   
      0.166855036927   0.16746820763   0.167952972611   0.16830349925   0.168515538328   
      0.168586506882   0.168515538328   0.16830349925   0.167952972611   0.16746820763   
      0.166855036927   0.16612076216   0.165274010066   0.164324561738   0.163283159024   
      0.162161293017   0.160970980705   0.159724536665   0.158434347254   0.157112654826   
      0.155771359125   0.154421842084   0.153074820947   0.151740232975   0.15042715322   
      0.149143745036   0.147897241424   0.146693953957   0.145539305139   0.144437879482   
      0.143393488456   0.142409244656   0.141487640949   0.14063063097   0.139839708027   
      0.13911598016   0.138460239774   0.137873026802   0.137354684896   0.136905410455   
      0.136525294599   0.136214358395   0.135972581685   0.135799925961   0.135696351676   
      0.142814284912   0.142853292598   0.142970324405   0.143165403747   0.14343856018   
      0.14378981497   0.144219160488   0.144726533041   0.14531177873   0.145974611891   
      0.146714565789   0.147530935327   0.148422711812   0.149388510164   0.150426489412   
      0.151534267925   0.152708835522   0.153946465339   0.15524262914   0.156591920471   
      0.157987990609   0.159423502621   0.160890108814   0.162378456413   0.163878225427   
      0.165378201301   0.166866383225   0.168330127   0.169756319307   0.171131578346   
      0.172442474208   0.173675761331   0.17481861488   0.175858863101   0.176785208373   
      0.177587430843   0.178256569891   0.178785080098   0.179166959707   0.179397850594   
      0.179475109493   0.179397850594   0.179166959707   0.178785080098   0.178256569891   
      0.177587430843   0.176785208373   0.175858863101   0.17481861488   0.173675761331   
      0.172442474208   0.171131578346   0.169756319307   0.168330127   0.166866383225   
      0.165378201301   0.163878225427   0.162378456413   0.160890108814   0.159423502621   
      0.157987990609   0.156591920471   0.15524262914   0.153946465339   0.152708835522   
      0.151534267925   0.150426489412   0.149388510164   0.148422711812   0.147530935327   
      0.146714565789   0.145974611891   0.14531177873   0.144726533041   0.144219160488   
      0.14378981497   0.14343856018   0.143165403747   0.142970324405   0.142853292598   
      0.147690495451   0.147732511987   0.147858568213   0.148068680824   0.14836286702   
      0.148741128352   0.14920342767   0.149749658792   0.150379608468   0.151092910233   
      0.15188898983   0.152767002077   0.153725759341   0.154763652205   0.155878563453   
      0.157067777192   0.158327885658   0.159654697142   0.161043149228   0.162487232295   
      0.163979928761   0.165513173705   0.167077842366   0.168663769261   0.170259802498   
      0.171853895189   0.173433233803   0.174984401144   0.176493569393   0.177946716823   
      0.17932986033   0.180629295201   0.181831833463   0.182925032813   0.18389740932   
      0.184738628679   0.185439672521   0.185992977937   0.186392549749   0.186634046075   
      0.186714838226   0.186634046075   0.186392549749   0.185992977937   0.185439672521   
      0.184738628679   0.18389740932   0.182925032813   0.181831833463   0.180629295201   
      0.17932986033   0.177946716823   0.176493569393   0.174984401144   0.173433233803   
      0.171853895189   0.170259802498   0.168663769261   0.167077842366   0.165513173705   
      0.163979928761   0.162487232295   0.161043149228   0.159654697142   0.158327885658   
      0.157067777192   0.155878563453   0.154763652205   0.153725759341   0.152767002077   
      0.15188898983   0.151092910233   0.150379608468   0.149749658792   0.14920342767   
      0.148741128352   0.14836286702   0.148068680824   0.147858568213   0.147732511987   
      0.150148177143   0.150191690907   0.150322237361   0.150539828635   0.150844473714   
      0.151236161356   0.151714835748   0.152280364495   0.152932498543   0.153670823621   
      0.154494702938   0.155403211039   0.156395059088   0.157468512265   0.158621300592   
      0.159850525164   0.161152562637   0.16252297162   0.163956405508   0.165446536953   
      0.166985999697   0.168566353574   0.170178078203   0.171810600022   0.173452355964   
      0.17509089521   0.176713018292   0.178304950468   0.179852544098   0.18134150286   
      0.182757619365   0.184087017146   0.185316388183   0.186433218053   0.187425992237   
      0.188284378921   0.188999385563   0.189563488201   0.189970733919   0.190216817815   
      0.190299136215   0.190216817815   0.189970733919   0.189563488201   0.188999385563   
      0.188284378921   0.187425992237   0.186433218053   0.185316388183   0.184087017146   
      0.182757619365   0.18134150286   0.179852544098   0.178304950468   0.176713018292   
      0.17509089521   0.173452355964   0.171810600022   0.170178078203   0.168566353574   
      0.166985999697   0.165446536953   0.163956405508   0.16252297162   0.161152562637   
      0.159850525164   0.158621300592   0.157468512265   0.156395059088   0.155403211039   
      0.154494702938   0.153670823621   0.152932498543   0.152280364495   0.151714835748   
      0.151236161356   0.150844473714   0.150539828635   0.150322237361   0.150191690907   
      0.150148177143   0.150191690907   0.150322237361   0.150539828635   0.150844473714   
      0.151236161356   0.151714835748   0.152280364495   0.152932498543   0.153670823621   
      0.154494702938   0.155403211039   0.156395059088   0.157468512265   0.158621300592   
      0.159850525164   0.161152562637   0.16252297162   0.163956405508   0.165446536953   
      0.166985999697   0.168566353574   0.170178078203   0.171810600022   0.173452355964   
      0.17509089521   0.176713018292   0.178304950468   0.179852544098   0.18134150286   
      0.182757619365   0.184087017146   0.185316388183   0.186433218053   0.187425992237   
      0.188284378921   0.188999385563   0.189563488201   0.189970733919   0.190216817815   
      0.190299136215   0.190216817815   0.189970733919   0.189563488201   0.188999385563   
      0.188284378921   0.187425992237   0.186433218053   0.185316388183   0.184087017146   
      0.182757619365   0.18134150286   0.179852544098   0.178304950468   0.176713018292   
      0.17509089521   0.173452355964   0.171810600022   0.170178078203   0.168566353574   
      0.166985999697   0.165446536953   0.163956405508   0.16252297162   0.161152562637   
      0.159850525164   0.158621300592   0.157468512265   0.156395059088   0.155403211039   
      0.154494702938   0.153670823621   0.152932498543   0.152280364495   0.151714835748   
      0.151236161356   0.150844473714   0.150539828635   0.150322237361   0.150191690907   
      0.147690495451   0.147732511987   0.147858568213   0.148068680824   0.14836286702   
      0.148741128352   0.14920342767   0.149749658792   0.150379608468   0.151092910233   
      0.15188898983   0.152767002077   0.153725759341   0.154763652205   0.155878563453   
      0.157067777192   0.158327885658   0.159654697142   0.161043149228   0.162487232295   
      0.163979928761   0.165513173705   0.167077842366   0.168663769261   0.170259802498   
      0.171853895189   0.173433233803   0.174984401144   0.176493569393   0.177946716823   
      0.17932986033   0.180629295201   0.181831833463   0.182925032813   0.18389740932   
      0.184738628679   0.185439672521   0.185992977937   0.186392549749   0.186634046075   
      0.186714838226   0.186634046075   0.186392549749   0.185992977937   0.185439672521   
      0.184738628679   0.18389740932   0.182925032813   0.181831833463   0.180629295201   
      0.17932986033   0.177946716823   0.176493569393   0.174984401144   0.173433233803   
      0.171853895189   0.170259802498   0.168663769261   0.167077842366   0.165513173705   
      0.163979928761   0.162487232295   0.161043149228   0.159654697142   0.158327885658   
      0.157067777192   0.155878563453   0.154763652205   0.153725759341   0.152767002077   
      0.15188898983   0.151092910233   0.150379608468   0.149749658792   0.14920342767   
      0.148741128352   0.14836286702   0.148068680824   0.147858568213   0.147732511987   
      0.142814284912   0.142853292598   0.142970324405   0.143165403747   0.14343856018   
      0.14378981497   0.144219160488   0.144726533041   0.14531177873   0.145974611891   
      0.146714565789   0.147530935327   0.148422711812   0.149388510164   0.150426489412   
      0.151534267925   0.152708835522   0.153946465339   0.15524262914   0.156591920471   
      0.157987990609   0.159423502621   0.160890108814   0.162378456413   0.163878225427   
      0.165378201301   0.166866383225   0.168330127   0.169756319307   0.171131578346   
      0.172442474208   0.173675761331   0.17481861488   0.175858863101   0.176785208373   
      0.177587430843   0.178256569891   0.178785080098   0.179166959707   0.179397850594   
      0.179475109493   0.179397850594   0.179166959707   0.178785080098   0.178256569891   
      0.177587430843   0.176785208373   0.175858863101   0.17481861488   0.173675761331   
      0.172442474208   0.171131578346   0.169756319307   0.168330127   0.166866383225   
      0.165378201301   0.163878225427   0.162378456413   0.160890108814   0.159423502621   
      0.157987990609   0.156591920471   0.15524262914   0.153946465339   0.152708835522   
      0.151534267925   0.150426489412   0.149388510164   0.148422711812   0.147530935327   
      0.146714565789   0.145974611891   0.14531177873   0.144726533041   0.144219160488   
      0.14378981497   0.14343856018   0.143165403747   0.142970324405   0.142853292598   
      0.135661830342   0.135696351676   0.135799925961   0.135972581685   0.136214358395   
      0.136525294599   0.136905410455   0.137354684896   0.137873026802   0.138460239774   
      0.13911598016   0.139839708027   0.14063063097   0.141487640949   0.142409244656   
      0.143393488456   0.144437879482   0.145539305139   0.146693953957   0.147897241424   
      0.149143745036   0.15042715322   0.151740232975   0.153074820947   0.154421842084   
      0.155771359125   0.157112654826   0.158434347254   0.159724536665   0.160970980705   
      0.162161293017   0.163283159024   0.164324561738   0.165274010066   0.16612076216   
      0.166855036927   0.16746820763   0.167952972611   0.16830349925   0.168515538328   
      0.168586506882   0.168515538328   0.16830349925   0.167952972611   0.16746820763   
      0.166855036927   0.16612076216   0.165274010066   0.164324561738   0.163283159024   
      0.162161293017   0.160970980705   0.159724536665   0.158434347254   0.157112654826   
      0.155771359125   0.154421842084   0.153074820947   0.151740232975   0.15042715322   
      0.149143745036   0.147897241424   0.146693953957   0.145539305139   0.144437879482   
      0.143393488456   0.142409244656   0.141487640949   0.14063063097   0.139839708027   
      0.13911598016   0.138460239774   0.137873026802   0.137354684896   0.136905410455   
      0.136525294599   0.136214358395   0.135972581685   0.135799925961   0.135696351676   
      0.126573774535   0.126602536752   0.126688833516   0.126832693327   0.127034157483   
      0.127293270624   0.127610067172   0.127984553371   0.12841668457   0.128906337392   
      0.129453276383   0.130057114872   0.130717269805   0.131432910585   0.132202902147   
      0.133025742913   0.133899498675   0.134821733988   0.135789443239   0.136798984141   
      0.137846016959   0.138925453277   0.140031418399   0.141157231573   0.142295408051   
      0.143437686416   0.144575083814   0.145697980511   0.146796233825   0.147859319934   
      0.148876500499   0.149837009653   0.150730255656   0.151546030721   0.152274722005   
      0.152907516711   0.15343659453   0.153855301235   0.15415829807   0.154341682493   
      0.154403076843   0.154341682493   0.15415829807   0.153855301235   0.15343659453   
      0.152907516711   0.152274722005   0.151546030721   0.150730255656   0.149837009653   
      0.148876500499   0.147859319934   0.146796233825   0.145697980511   0.144575083814   
      0.143437686416   0.142295408051   0.141157231573   0.140031418399   0.138925453277   
      0.137846016959   0.136798984141   0.135789443239   0.134821733988   0.133899498675   
      0.133025742913   0.132202902147   0.131432910585   0.130717269805   0.130057114872   
      0.129453276383   0.128906337392   0.12841668457   0.127984553371   0.127610067172   