<?xml version="1.0"?>
<VTKFile type="ImageData" version="0.1" byte_order="LittleEndian">
  <ImageData WholeExtent="0 79 0 19 0 19" Origin="0 0 0" Spacing="1 1 1">
  <Piece Extent="0 79 0 19 0 19">
    <PointData Scalars="density">
       <DataArray type="Float32" Name="reddensity" NumberOfComponents="1" format="ascii">
      0   0   0   0   0   
      0   0   0   0   0   
      0   0   0   0   0   
      0   0   0   0   0   
      0   0   0   0   0   
      0   0   0   0   0   
      0   0   0   0   0   
      0   0   0   0   0   
      0   0   0   0   0   
      0   0   0   0   0   
      0   0   0   0   0   
      0   0   0   0   0   
      0   0   0   0   0   
      0   0   0   0   0   
      0   0   0   0   0   
      0   0   0   0   0   
      0   0   0   0   0   
      0   0   0   0   0   
      0   0   0   0   0   
      0   0   0   0   0   
      0   0   0   0   0   
      0   0   0   0   0   
      0   0   0   0   0   
      0   0   0   0   0   
      0   0   0   0   0   
      0   0   0   0   0   
      0   0   0   0   0   
      0   0   0   0   0   
      0   0   0   0   0   
      0   0   0   0   0   
      0   0   0   0   0   
      0   0   0   0   0   
      0   0   0   0   0   
      0   0   0   0   0   
      0   0   0   0   0   
      0   0   0   0   0   
      0   0   0   0   0   
      0   0   0   0   0   
      0   0   0   0   0   
      0   0   0   0   0   
      0   0   0   0   0   
      0   0   0   0   0   
      0   0   0   0   0   
      0   0   0   0   0   
      0   0   0   0   0   
      0   0   0   0   0   
      0   0   0   0   0   
      0   0   0   0   0   
      0   0   0   0   0   
      0   0   0   0   0   
      0   0   0   0   0   
      0   0   0   0   0   
      0   0   0   0   0   
      0   0   0   0   0   
      0   0   0   0   0   
      0   0   0   0   0   
      0   0   0   0   0   
      0   0   0   0   0   
      0   0   0   0   0   
      0   0   0   0   0   
      0   0   0   0   0   
      0   0   0   0   0   
      0   0   0   0   0   
      0   0   0   0   0   
      0   0   0   0   0   
      0   0   0   0   0   
      0   0   0   0   0   
      0   0   0   0   0   
      0   0   0   0   0   
      0   0   0   0   0   
      0   0   0   0   0   
      0   0   0   0   0   
      0   0   0   0   0   
      0   0   0   0   0   
      0   0   0   0   0   
      0   0   0   0   0   
      0   0   0   0   0   
      0   0   0   0   0   
      0   0   0   0   0   
      0   0   0   0   0   
      0   0   0   0   0   
      0   0   0   0   0   
      0   0   0   0   0   
      0   0   0   0   0   
      0   0   0   0   0   
      0   0   0   0   0   
      0   0   0   0   0   
      0   0   0   0   0   
      0   0   0   0   0   
      0   0   0   0   0   
      0   0   0   0   0   
      0   0   0   0   0   
      0   0   0   0   0   
      0   0   0   0   0   
      0   0   0   0   0   
      0   0   0   0   0   
      0   0   0   0   0   
      0   0   0   0   0   
      0   0   0   0   0   
      0   0   0   0   0   
      0   0   0   0   0   
      0   0   0   0   0   
      0   0   0   0   0   
      0   0   0   0   0   
      0   0   0   0   0   
      0   0   0   0   0   
      0   0   0   0   0   
      0   0   0   0   0   
      0   0   0   0   0   
      0   0   0   0   0   
      0   0   0   0   0   
      0   0   0   0   0   
      0   0   0   0   0   
      0   0   0   0   0   
      0   0   0   0   0   
      0   0   0   0   0   
      0   0   0   0   0   
      0   0   0   0   0   
      0   0   0   0   0   
      0   0   0   0   0   
      0   0   0   0   0   
      0   0   0   0   0   
      0   0   0   0   0   
      0   0   0   0   0   
      0   0   0   0   0   
      0   0   0   0   0   
      0   0   0   0   0   
      0   0   0   0   0   
      0   0   0   0   0   
      0   0   0   0   0   
      0   0   0   0   0   
      0   0   0   0   0   
      0   0   0   0   0   
      0   0   0   0   0   
      0   0   0   0   0   
      0   0   0   0   0   
      0   0   0   0   0   
      0   0   0   0   0   
      0   0   0   0   0   
      0   0   0   0   0   
      0   0   0   0   0   
      0   0   0   0   0   
      0   0   0   0   0   
      0   0   0   0   0   
      0   0   0   0   0   
      0   0   0   0   0   
      0   0   0   0   0   
      0   0   0   0   0   
      0   0   0   0   0   
      0   0   0   0   0   
      0   0   0   0   0   
      0   0   0   0   0   
      0   0   0   0   0   
      0   0   0   0   0   
      0   0   0   0   0   
      0   0   0   0   0   
      0   0   0   0   0   
      0   0   0   0   0   
      0   0   0   0   0   
      0   0   0   0   0   
      0   0   0   0   0   
      0   0   0   0   0   
      0   0   0   0   0   
      0   0   0   0   0   
      0   0   0   0   0   
      0   0   0   0   0   
      0   0   0   0   0   
      0   0   0   0   0   
      0   0   0   0   0   
      0   0   0   0   0   
      0   0   0   0   0   
      0   0   0   0   0   
      0   0   0   0   0   
      0   0   0   0   0   
      0   0   0   0   0   
      0   0   0   0   0   
      0   0   0   0   0   
      0   0   0   0   0   
      0   0   0   0   0   
      0   0   0   0   0   
      0   0   0   0   0   
      0   0   0   0   0   
      0   0   0   0   0   
      0   0   0   0   0   
      0   0   0   0   0   
      0   0   0   0   0   
      0   0   0   0   0   
      0   0   0   0   0   
      0   0   0   0   0   
      0   0   0   0   0   
      0   0   0   0   0   
      0   0   0   0   0   
      0   0   0   0   0   
      0   0   0   0   0   
      0   0   0   0   0   
      0   0   0   0   0   
      0   0   0   0   0   
      0   0   0   0   0   
      0   0   0   0   0   
      0   0   0   0   0   
      0   0   0   0   0   
      0   0   0   0   0   
      0   0   0   0   0   
      0   0   0   0   0   
      0   0   0   0   0   
      0   0   0   0   0   
      0   0   0   0   0   
      0   0   0   0   0   
      0   0   0   0   0   
      0   0   0   0   0   
      0   0   0   0   0   
      0   0   0   0   0   
      0   0   0   0   0   
      0   0   0   0   0   
      0   0   0   0   0   
      0   0   0   0   0   
      0   0   0   0   0   
      0   0   0   0   0   
      0   0   0   0   0   
      0   0   0   0   0   
      0   0   0   0   0   
      0   0   0   0   0   
      0   0   0   0   0   
      0   0   0   0   0   
      0   0   0   0   0   
      0   0   0   0   0   
      0   0   0   0   0   
      0   0   0   0   0   
      0   0   0   0   0   
      0   0   0   0   0   
      0   0   0   0   0   
      0   0   0   0   0   
      0   0   0   0   0   
      0   0   0   0   0   
      0   0   0   0   0   
      0   0   0   0   0   
      0   0   0   0   0   
      0   0   0   0   0   
      0   0   0   0   0   
      0   0   0   0   0   
      0   0   0   0   0   
      0   0   0   0   0   
      0   0   0   0   0   
      0   0   0   0   0   
      0   0   0   0   0   
      0   0   0   0   0   
      0   0   0   0   0   
      0   0   0   0   0   
      0   0   0   0   0   
      0   0   0   0   0   
      0   0   0   0   0   
      0   0   0   0   0   
      0   0   0   0   0   
      0   0   0   0   0   
      0   0   0   0   0   
      0   0   0   0   0   
      0   0   0   0   0   
      0   0   0   0   0   
      0   0   0   0   0   
      0   0   0   0   0   
      0   0   0   0   0   
      0   0   0   0   0   
      0   0   0   0   0   
      0   0   0   0   0   
      0   0   0   0   0   
      0   0   0   0   0   
      0   0   0   0   0   
      0   0   0   0   0   
      0   0   0   0   0   
      0   0   0   0   0   
      0   0   0   0   0   
      0   0   0   0   0   
      0   0   0   0   0   
      0   0   0   0   0   
      0   0   0   0   0   
      0   0   0   0   0   
      0   0   0   0   0   
      0   0   0   0   0   
      0   0   0   0   0   
      0   0   0   0   0   
      0   0   0   0   0   
      0   0   0   0   0   
      0   0   0   0   0   
      0   0   0   0   0   
      0   0   0   0   0   
      0   0   0   0   0   
      0   0   0   0   0   
      0   0   0   0   0   
      0   0   0   0   0   
      0   0   0   0   0   
      0   0   0   0   0   
      0   0   0   0   0   
      0   0   0   0   0   
      0   0   0   0   0   
      0   0   0   0   0   
      0   0   0   0   0   
      0   0   0   0   0   
      0   0   0   0   0   
      0   0   0   0   0   
      0   0   0   0   0   
      0   0   0   0   0   
      0   0   0   0   0   
      0   0   0   0   0   
      0   0   0   0   0   
      0   0   0   0   0   
      0   0   0   0   0   
      0   0   0   0   0   
      0   0   0   0   0   
      0   0   0   0   0   
      0   0   0   0   0   
      0   0   0   0   0   
      0   0   0   0   0   
      0   0   0   0   0   
      0   0   0   0   0   
      0   0   0   0   0   
      0   0   0   0   0   
      0   0   0   0   0   
      0   0   0   0   0   
      0   0   0   0   0   
      0   0   0   0   0   
      0   0   0   0   0   
      0   0   0   0   0   
      0   0   0   0   0   
      0   0   0   0   0   
      0   0   0   0   0   
      0   0   0   0   0   
      0   0   0   0   0   
      0   0   0   0   0   
      0   0   0   0   0   
      0   0   0   0   0   
      0   0   0   0   0   
      0   0   0   0   0   
      0   0   0   0   0   
      0   0   0   0   0   
      0   0   0   0   0   
      0   0   0   0   0   
      0.084459118275   0.0844619882212   0.0844705874128   0.0844848838429   0.0845048239509   
      0.0845303323047   0.0845613111671   0.0845976399591   0.0846391746357   0.0846857469935   
      0.0847371639354   0.0847932067195   0.0848536302267   0.0849181622834   0.0849865030829   
      0.0850583247511   0.0851332711058   0.0852109576639   0.0852909719493   0.0853728741573   
      0.0854561982268   0.0855404533713   0.0856251261105   0.0857096828385   0.0857935729514   
      0.0858762325454   0.0859570886801   0.0860355641833   0.0861110829554   0.0861830757122   
      0.0862509860824   0.0863142769606   0.0863724369971   0.086424987093   0.0864714867575   
      0.08651154018   0.0865448018667   0.0865709816985   0.0865898492749   0.0866012374267   
      0.0866050447981   0.0866012374267   0.0865898492749   0.0865709816985   0.0865448018667   
      0.08651154018   0.0864714867575   0.086424987093   0.0863724369971   0.0863142769606   
      0.0862509860824   0.0861830757122   0.0861110829554   0.0860355641833   0.0859570886801   
      0.0858762325454   0.0857935729514   0.0857096828385   0.0856251261105   0.0855404533713   
      0.0854561982268   0.0853728741573   0.0852909719493   0.0852109576639   0.0851332711058   
      0.0850583247511   0.0849865030829   0.0849181622834   0.0848536302267   0.0847932067195   
      0.0847371639354   0.0846857469935   0.0846391746357   0.0845976399591   0.0845613111671   
      0.0845303323047   0.0845048239509   0.0844848838429   0.0844705874128   0.0844619882212   
      0.093373468053   0.0933775877705   0.0933899318352   0.0934104548842   0.0934390809852   
      0.0934757031533   0.0935201826924   0.0935723483787   0.0936319955104   0.0936988848523   
      0.0937727415121   0.0938532537898   0.0939400720507   0.0940328076767   0.0941310321587   
      0.0942342763999   0.0943420303013   0.0944537427102   0.0945688218084   0.094686636023   
      0.0948065155359   0.0949277544639   0.0950496137732   0.0951713249787   0.0952920946621   
      0.0954111098236   0.0955275440586   0.0956405645245   0.0957493396365   0.095853047399   
      0.0959508842547   0.0960420743027   0.0961258787148   0.0962016051565   0.0962686170079   
      0.096326342167   0.0963742812214   0.0964120147781   0.0964392097584   0.0964556244862   
      0.0964611124291   0.0964556244862   0.0964392097584   0.0964120147781   0.0963742812214   
      0.096326342167   0.0962686170079   0.0962016051565   0.0961258787148   0.0960420743027   
      0.0959508842547   0.095853047399   0.0957493396365   0.0956405645245   0.0955275440586   
      0.0954111098236   0.0952920946621   0.0951713249787   0.0950496137732   0.0949277544639   
      0.0948065155359   0.094686636023   0.0945688218084   0.0944537427102   0.0943420303013   
      0.0942342763999   0.0941310321587   0.0940328076767   0.0939400720507   0.0938532537898   
      0.0937727415121   0.0936988848523   0.0936319955104   0.0935723483787   0.0935201826924   
      0.0934757031533   0.0934390809852   0.0934104548842   0.0933899318352   0.0933775877705   
      0.108792171509   0.108798905811   0.108819084296   0.108852633522   0.108899430524   
      0.108959301982   0.109032023082   0.109117316119   0.109214848851   0.109324232691   
      0.109445020765   0.10957670593   0.109718718833   0.109870426096   0.110031128739   
      0.110200060967   0.11037638942   0.110559213044   0.110747563694   0.110940407623   
      0.111136647954   0.111335128293   0.111534637549   0.111733916056   0.111931663062   
      0.112126545574   0.112317208572   0.112502286512   0.112680416005   0.112850249541   
      0.113010470032   0.113159805945   0.113297046732   0.113421058257   0.11353079786   
      0.113625328736   0.113703833256   0.113765624912   0.113810158555   0.113837038681   
      0.113846025505   0.113837038681   0.113810158555   0.113765624912   0.113703833256   
      0.113625328736   0.11353079786   0.113421058257   0.113297046732   0.113159805945   
      0.113010470032   0.112850249541   0.112680416005   0.112502286512   0.112317208572   
      0.112126545574   0.111931663062   0.111733916056   0.111534637549   0.111335128293   
      0.111136647954   0.110940407623   0.110747563694   0.110559213044   0.11037638942   
      0.110200060967   0.110031128739   0.109870426096   0.109718718833   0.10957670593   
      0.109445020765   0.109324232691   0.109214848851   0.109117316119   0.109032023082   
      0.108959301982   0.108899430524   0.108852633522   0.108819084296   0.108798905811   
      0.121788546058   0.12179809658   0.121826713392   0.121874291989   0.121940657378   
      0.12202556288   0.122128688495   0.122249638882   0.122387941004   0.122543041528   
      0.122714304061   0.122901006333   0.123102337447   0.123317395347   0.123545184632   
      0.123784614918   0.124034499893   0.124293557278   0.124560409855   0.124833587774   
      0.125111532291   0.125392601114   0.125675075483   0.125957169082   0.126237038857   
      0.126512797741   0.126782529253   0.127044303864   0.127296196964   0.127536308215   
      0.12776278198   0.127973828502   0.128167745428   0.128342939236   0.128497946124   
      0.128631451865   0.128742310173   0.128829559127   0.128892435231   0.128930384759   
      0.128943072085   0.128930384759   0.128892435231   0.128829559127   0.128742310173   
      0.128631451865   0.128497946124   0.128342939236   0.128167745428   0.127973828502   
      0.12776278198   0.127536308215   0.127296196964   0.127044303864   0.126782529253   
      0.126512797741   0.126237038857   0.125957169082   0.125675075483   0.125392601114   
      0.125111532291   0.124833587774   0.124560409855   0.124293557278   0.124034499893   
      0.123784614918   0.123545184632   0.123317395347   0.123102337447   0.122901006333   
      0.122714304061   0.122543041528   0.122387941004   0.122249638882   0.122128688495   
      0.12202556288   0.121940657378   0.121874291989   0.121826713392   0.12179809658   
      0.134034591294   0.13404694682   0.134083967877   0.134145517594   0.134231366801   
      0.134341192483   0.134474575686   0.134630998921   0.134809843168   0.135010384567   
      0.135231790931   0.135473118219   0.135733307135   0.136011180039   0.136305438371   
      0.136614660809   0.136937302389   0.137271694819   0.13761604824   0.137968454639   
      0.138326893155   0.138689237444   0.139053265276   0.139416670457   0.139777077144   
      0.140132056533   0.140479145854   0.14081586951   0.141139762135   0.141448393263   
      0.141739393237   0.142010479911   0.142259485644   0.142484384069   0.142683316047   
      0.142854614263   0.142996825884   0.143108732765   0.1431893687   0.143238033314   
      0.143254302236   0.143238033314   0.1431893687   0.143108732765   0.142996825884   
      0.142854614263   0.142683316047   0.142484384069   0.142259485644   0.142010479911   
      0.141739393237   0.141448393263   0.141139762135   0.14081586951   0.140479145854   
      0.140132056533   0.139777077144   0.139416670457   0.139053265276   0.138689237444   
      0.138326893155   0.137968454639   0.13761604824   0.137271694819   0.136937302389   
      0.136614660809   0.136305438371   0.136011180039   0.135733307135   0.135473118219   
      0.135231790931   0.135010384567   0.134809843168   0.134630998921   0.134474575686   
      0.134341192483   0.134231366801   0.134145517594   0.134083967877   0.13404694682   
      0.144629885876   0.144644656624   0.144688913467   0.144762489831   0.144865106862   
      0.144996371623   0.145155774642   0.145342686904   0.145556356384   0.145795904242   
      0.146060320855   0.146348461841   0.146659044295   0.146990643454   0.147341690037   
      0.147710468522   0.148095116632   0.148493626308   0.148903846433   0.149323487584   
      0.149750129022   0.150181228145   0.150614132548   0.151046094786   0.151474289878   
      0.151895835509   0.152307814796   0.152707301421   0.153091386827   0.153457209112   
      0.153801983154   0.154123031472   0.154417815241   0.154683964863   0.154919309475   
      0.155121904768   0.155290058523   0.155422353279   0.155517665651   0.155575181827   
      0.15559440891   0.155575181827   0.155517665651   0.155422353279   0.155290058523   
      0.155121904768   0.154919309475   0.154683964863   0.154417815241   0.154123031472   
      0.153801983154   0.153457209112   0.153091386827   0.152707301421   0.152307814796   
      0.151895835509   0.151474289878   0.151046094786   0.150614132548   0.150181228145   
      0.149750129022   0.149323487584   0.148903846433   0.148493626308   0.148095116632   
      0.147710468522   0.147341690037   0.146990643454   0.146659044295   0.146348461841   
      0.146060320855   0.145795904242   0.145556356384   0.145342686904   0.145155774642   
      0.144996371623   0.144865106862   0.144762489831   0.144688913467   0.144644656624   
      0.15294962861   0.152966240111   0.153016011136   0.153098750846   0.153214139832   
      0.153361728143   0.153540932624   0.153751033647   0.153991171373   0.15426034168   
      0.154557391952   0.154881016915   0.155229754776   0.155601983903   0.155995920337   
      0.156409616412   0.156840960805   0.157287680294   0.157747343539   0.158217367138   
      0.158695024222   0.159177455761   0.159661684751   0.160144633337   0.160623142883   
      0.161093996903   0.161553946686   0.161999739341   0.162428147929   0.162836003243   
      0.16322022673   0.163577864001   0.163906118316   0.164202383408   0.164464275009   
      0.164689660431   0.164876685606   0.165023799006   0.165129771964   0.165193714934   
      0.165215089366   0.165193714934   0.165129771964   0.165023799006   0.164876685606   
      0.164689660431   0.164464275009   0.164202383408   0.163906118316   0.163577864001   
      0.16322022673   0.162836003243   0.162428147929   0.161999739341   0.161553946686   
      0.161093996903   0.160623142883   0.160144633337   0.159661684751   0.159177455761   
      0.158695024222   0.158217367138   0.157747343539   0.157287680294   0.156840960805   
      0.156409616412   0.155995920337   0.155601983903   0.155229754776   0.154881016915   
      0.154557391952   0.15426034168   0.153991171373   0.153751033647   0.153540932624   
      0.153361728143   0.153214139832   0.153098750846   0.153016011136   0.152966240111   
      0.158603631046   0.158621450736   0.158674840677   0.158763593058   0.158887360119   
      0.159045652099   0.159237834463   0.159463124509   0.159720587514   0.160009132549   
      0.160327508196   0.160674298367   0.161047918491   0.161446612343   0.16186844981   
      0.162311325913   0.162772961392   0.163250905177   0.163742539042   0.164245084723   
      0.164755613729   0.165271060051   0.165788235877   0.166303850384   0.166814531561   
      0.167316850963   0.167807351173   0.168282575685   0.168739100802   0.169173569103   
      0.169582723936   0.169963444339   0.170312779783   0.170627984077   0.170906547792   
      0.171146228586   0.171345078812   0.17150146989   0.171614112938   0.171682075258   
      0.171704792359   0.171682075258   0.171614112938   0.17150146989   0.171345078812   
      0.171146228586   0.170906547792   0.170627984077   0.170312779783   0.169963444339   
      0.169582723936   0.169173569103   0.168739100802   0.168282575685   0.167807351173   
      0.167316850963   0.166814531561   0.166303850384   0.165788235877   0.165271060051   
      0.164755613729   0.164245084723   0.163742539042   0.163250905177   0.162772961392   
      0.162311325913   0.16186844981   0.161446612343   0.161047918491   0.160674298367   
      0.160327508196   0.160009132549   0.159720587514   0.159463124509   0.159237834463   
      0.159045652099   0.158887360119   0.158763593058   0.158674840677   0.158621450736   
      0.161446387151   0.161464798499   0.161519960518   0.161611656705   0.161739524788   
      0.161903054642   0.162101585474   0.162334302392   0.162600232505   0.162898240719   
      0.163227025447   0.163585114453   0.163970861114   0.164382441362   0.164817851639   
      0.165274908166   0.165751247861   0.166244331221   0.166751447477   0.167269722292   
      0.167796128241   0.168327498257   0.16886054215   0.169391866249   0.169917996112   
      0.170435402173   0.170940528098   0.171429821523   0.171899766775   0.172346919082   
      0.172767939731   0.173159631581   0.173518974279   0.173843158559   0.174129618964   
      0.174376064378   0.174580505784   0.174741280709   0.174857073904   0.174926933843   
      0.174950284738   0.174926933843   0.174857073904   0.174741280709   0.174580505784   
      0.174376064378   0.174129618964   0.173843158559   0.173518974279   0.173159631581   
      0.172767939731   0.172346919082   0.171899766775   0.171429821523   0.170940528098   
      0.170435402173   0.169917996112   0.169391866249   0.16886054215   0.168327498257   
      0.167796128241   0.167269722292   0.166751447477   0.166244331221   0.165751247861   
      0.165274908166   0.164817851639   0.164382441362   0.163970861114   0.163585114453   
      0.163227025447   0.162898240719   0.162600232505   0.162334302392   0.162101585474   
      0.161903054642   0.161739524788   0.161611656705   0.161519960518   0.161464798499   
      0.161446387151   0.161464798499   0.161519960518   0.161611656705   0.161739524788   
      0.161903054642   0.162101585474   0.162334302392   0.162600232505   0.162898240719   
      0.163227025447   0.163585114453   0.163970861114   0.164382441362   0.164817851639   
      0.165274908166   0.165751247861   0.166244331221   0.166751447477   0.167269722292   
      0.167796128241   0.168327498257   0.16886054215   0.169391866249   0.169917996112   
      0.170435402173   0.170940528098   0.171429821523   0.171899766775   0.172346919082   
      0.172767939731   0.173159631581   0.173518974279   0.173843158559   0.174129618964   
      0.174376064378   0.174580505784   0.174741280709   0.174857073904   0.174926933843   
      0.174950284738   0.174926933843   0.174857073904   0.174741280709   0.174580505784   
      0.174376064378   0.174129618964   0.173843158559   0.173518974279   0.173159631581   
      0.172767939731   0.172346919082   0.171899766775   0.171429821523   0.170940528098   
      0.170435402173   0.169917996112   0.169391866249   0.16886054215   0.168327498257   
      0.167796128241   0.167269722292   0.166751447477   0.166244331221   0.165751247861   
      0.165274908166   0.164817851639   0.164382441362   0.163970861114   0.163585114453   
      0.163227025447   0.162898240719   0.162600232505   0.162334302392   0.162101585474   
      0.161903054642   0.161739524788   0.161611656705   0.161519960518   0.161464798499   
      0.158603631046   0.158621450736   0.158674840677   0.158763593058   0.158887360119   
      0.159045652099   0.159237834463   0.159463124509   0.159720587514   0.160009132549   
      0.160327508196   0.160674298367   0.161047918491   0.161446612343   0.16186844981   
      0.162311325913   0.162772961392   0.163250905177   0.163742539042   0.164245084723   
      0.164755613729   0.165271060051   0.165788235877   0.166303850384   0.166814531561   
      0.167316850963   0.167807351173   0.168282575685   0.168739100802   0.169173569103   
      0.169582723936   0.169963444339   0.170312779783   0.170627984077   0.170906547792   
      0.171146228586   0.171345078812   0.17150146989   0.171614112938   0.171682075258   
      0.171704792359   0.171682075258   0.171614112938   0.17150146989   0.171345078812   
      0.171146228586   0.170906547792   0.170627984077   0.170312779783   0.169963444339   
      0.169582723936   0.169173569103   0.168739100802   0.168282575685   0.167807351173   
      0.167316850963   0.166814531561   0.166303850384   0.165788235877   0.165271060051   
      0.164755613729   0.164245084723   0.163742539042   0.163250905177   0.162772961392   
      0.162311325913   0.16186844981   0.161446612343   0.161047918491   0.160674298367   
      0.160327508196   0.160009132549   0.159720587514   0.159463124509   0.159237834463   
      0.159045652099   0.158887360119   0.158763593058   0.158674840677   0.158621450736   
      0.15294962861   0.152966240111   0.153016011136   0.153098750846   0.153214139832   
      0.153361728143   0.153540932624   0.153751033647   0.153991171373   0.15426034168   
      0.154557391952   0.154881016915   0.155229754776   0.155601983903   0.155995920337   
      0.156409616412   0.156840960805   0.157287680294   0.157747343539   0.158217367138   
      0.158695024222   0.159177455761   0.159661684751   0.160144633337   0.160623142883   
      0.161093996903   0.161553946686   0.161999739341   0.162428147929   0.162836003243   
      0.16322022673   0.163577864001   0.163906118316   0.164202383408   0.164464275009   
      0.164689660431   0.164876685606   0.165023799006   0.165129771964   0.165193714934   
      0.165215089366   0.165193714934   0.165129771964   0.165023799006   0.164876685606   
      0.164689660431   0.164464275009   0.164202383408   0.163906118316   0.163577864001   
      0.16322022673   0.162836003243   0.162428147929   0.161999739341   0.161553946686   
      0.161093996903   0.160623142883   0.160144633337   0.159661684751   0.159177455761   
      0.158695024222   0.158217367138   0.157747343539   0.157287680294   0.156840960805   
      0.156409616412   0.155995920337   0.155601983903   0.155229754776   0.154881016915   
      0.154557391952   0.15426034168   0.153991171373   0.153751033647   0.153540932624   
      0.153361728143   0.153214139832   0.153098750846   0.153016011136   0.152966240111   
      0.144629885876   0.144644656624   0.144688913467   0.144762489831   0.144865106862   
      0.144996371623   0.145155774642   0.145342686904   0.145556356384   0.145795904242   
      0.146060320855   0.146348461841   0.146659044295   0.146990643454   0.147341690037   
      0.147710468522   0.148095116632   0.148493626308   0.148903846433   0.149323487584   
      0.149750129022   0.150181228145   0.150614132548   0.151046094786   0.151474289878   
      0.151895835509   0.152307814796   0.152707301421   0.153091386827   0.153457209112   
      0.153801983154   0.154123031472   0.154417815241   0.154683964863   0.154919309475   
      0.155121904768   0.155290058523   0.155422353279   0.155517665651   0.155575181827   
      0.15559440891   0.155575181827   0.155517665651   0.155422353279   0.155290058523   
      0.155121904768   0.154919309475   0.154683964863   0.154417815241   0.154123031472   
      0.153801983154   0.153457209112   0.153091386827   0.152707301421   0.152307814796   
      0.151895835509   0.151474289878   0.151046094786   0.150614132548   0.150181228145   
      0.149750129022   0.149323487584   0.148903846433   0.148493626308   0.148095116632   
      0.147710468522   0.147341690037   0.146990643454   0.146659044295   0.146348461841   
      0.146060320855   0.145795904242   0.145556356384   0.145342686904   0.145155774642   
      0.144996371623   0.144865106862   0.144762489831   0.144688913467   0.144644656624   
      0.134034591294   0.13404694682   0.134083967877   0.134145517594   0.134231366801   
      0.134341192483   0.134474575686   0.134630998921   0.134809843168   0.135010384567   
      0.135231790931   0.135473118219   0.135733307135   0.136011180039   0.136305438371   
      0.136614660809   0.136937302389   0.137271694819   0.13761604824   0.137968454639   
      0.138326893155   0.138689237444   0.139053265276   0.139416670457   0.139777077144   
      0.140132056533   0.140479145854   0.14081586951   0.141139762135   0.141448393263   
      0.141739393237   0.142010479911   0.142259485644   0.142484384069   0.142683316047   
      0.142854614263   0.142996825884   0.143108732765   0.1431893687   0.143238033314   
      0.143254302236   0.143238033314   0.1431893687   0.143108732765   0.142996825884   
      0.142854614263   0.142683316047   0.142484384069   0.142259485644   0.142010479911   
      0.141739393237   0.141448393263   0.141139762135   0.14081586951   0.140479145854   
      0.140132056533   0.139777077144   0.139416670457   0.139053265276   0.138689237444   
      0.138326893155   0.137968454639   0.13761604824   0.137271694819   0.136937302389   
      0.136614660809   0.136305438371   0.136011180039   0.135733307135   0.135473118219   
      0.135231790931   0.135010384567   0.134809843168   0.134630998921   0.134474575686   