<?xml version="1.0"?>
<VTKFile type="ImageData" version="0.1" byte_order="LittleEndian">
  <ImageData WholeExtent="0 79 0 19 0 19" Origin="0 0 0" Spacing="1 1 1">
  <Piece Extent="0 79 0 19 0 19">
    <PointData Scalars="density">
       <DataArray type="Float32" Name="reddensity" NumberOfComponents="1" format="ascii">
      0   0   0   0   0   
      0   0   0   0   0   
      0   0   0   0   0   
      0   0   0   0   0   
      0   0   0   0   0   
      0   0   0   0   0   
      0   0   0   0   0   
      0   0   0   0   0   
      0   0   0   0   0   
      0   0   0   0   0   
      0   0   0   0   0   
      0   0   0   0   0   
      0   0   0   0   0   
      0   0   0   0   0   
      0   0   0   0   0   
      0   0   0   0   0   
      0   0   0   0   0   
      0   0   0   0   0   
      0   0   0   0   0   
      0   0   0   0   0   
      0   0   0   0   0   
      0   0   0   0   0   
      0   0   0   0   0   
      0   0   0   0   0   
      0   0   0   0   0   
      0   0   0   0   0   
      0   0   0   0   0   
      0   0   0   0   0   
      0   0   0   0   0   
      0   0   0   0   0   
      0   0   0   0   0   
      0   0   0   0   0   
      0   0   0   0   0   
      0   0   0   0   0   
      0   0   0   0   0   
      0   0   0   0   0   
      0   0   0   0   0   
      0   0   0   0   0   
      0   0   0   0   0   
      0   0   0   0   0   
      0   0   0   0   0   
      0   0   0   0   0   
      0   0   0   0   0   
      0   0   0   0   0   
      0   0   0   0   0   
      0   0   0   0   0   
      0   0   0   0   0   
      0   0   0   0   0   
      0   0   0   0   0   
      0   0   0   0   0   
      0   0   0   0   0   
      0   0   0   0   0   
      0   0   0   0   0   
      0   0   0   0   0   
      0   0   0   0   0   
      0   0   0   0   0   
      0   0   0   0   0   
      0   0   0   0   0   
      0   0   0   0   0   
      0   0   0   0   0   
      0   0   0   0   0   
      0   0   0   0   0   
      0   0   0   0   0   
      0   0   0   0   0   
      0   0   0   0   0   
      0   0   0   0   0   
      0   0   0   0   0   
      0   0   0   0   0   
      0   0   0   0   0   
      0   0   0   0   0   
      0   0   0   0   0   
      0   0   0   0   0   
      0   0   0   0   0   
      0   0   0   0   0   
      0   0   0   0   0   
      0   0   0   0   0   
      0   0   0   0   0   
      0   0   0   0   0   
      0   0   0   0   0   
      0   0   0   0   0   
      0   0   0   0   0   
      0   0   0   0   0   
      0   0   0   0   0   
      0   0   0   0   0   
      0   0   0   0   0   
      0   0   0   0   0   
      0   0   0   0   0   
      0   0   0   0   0   
      0   0   0   0   0   
      0   0   0   0   0   
      0   0   0   0   0   
      0   0   0   0   0   
      0   0   0   0   0   
      0   0   0   0   0   
      0   0   0   0   0   
      0   0   0   0   0   
      0   0   0   0   0   
      0   0   0   0   0   
      0   0   0   0   0   
      0   0   0   0   0   
      0   0   0   0   0   
      0   0   0   0   0   
      0   0   0   0   0   
      0   0   0   0   0   
      0   0   0   0   0   
      0   0   0   0   0   
      0   0   0   0   0   
      0   0   0   0   0   
      0   0   0   0   0   
      0   0   0   0   0   
      0   0   0   0   0   
      0   0   0   0   0   
      0   0   0   0   0   
      0   0   0   0   0   
      0   0   0   0   0   
      0   0   0   0   0   
      0   0   0   0   0   
      0   0   0   0   0   
      0   0   0   0   0   
      0   0   0   0   0   
      0   0   0   0   0   
      0   0   0   0   0   
      0   0   0   0   0   
      0   0   0   0   0   
      0   0   0   0   0   
      0   0   0   0   0   
      0   0   0   0   0   
      0   0   0   0   0   
      0   0   0   0   0   
      0   0   0   0   0   
      0   0   0   0   0   
      0   0   0   0   0   
      0   0   0   0   0   
      0   0   0   0   0   
      0   0   0   0   0   
      0   0   0   0   0   
      0   0   0   0   0   
      0   0   0   0   0   
      0   0   0   0   0   
      0   0   0   0   0   
      0   0   0   0   0   
      0   0   0   0   0   
      0   0   0   0   0   
      0   0   0   0   0   
      0   0   0   0   0   
      0   0   0   0   0   
      0   0   0   0   0   
      0   0   0   0   0   
      0   0   0   0   0   
      0   0   0   0   0   
      0   0   0   0   0   
      0   0   0   0   0   
      0   0   0   0   0   
      0   0   0   0   0   
      0   0   0   0   0   
      0   0   0   0   0   
      0   0   0   0   0   
      0   0   0   0   0   
      0   0   0   0   0   
      0   0   0   0   0   
      0   0   0   0   0   
      0   0   0   0   0   
      0   0   0   0   0   
      0   0   0   0   0   
      0   0   0   0   0   
      0   0   0   0   0   
      0   0   0   0   0   
      0   0   0   0   0   
      0   0   0   0   0   
      0   0   0   0   0   
      0   0   0   0   0   
      0   0   0   0   0   
      0   0   0   0   0   
      0   0   0   0   0   
      0   0   0   0   0   
      0   0   0   0   0   
      0   0   0   0   0   
      0   0   0   0   0   
      0   0   0   0   0   
      0   0   0   0   0   
      0   0   0   0   0   
      0   0   0   0   0   
      0   0   0   0   0   
      0   0   0   0   0   
      0   0   0   0   0   
      0   0   0   0   0   
      0   0   0   0   0   
      0   0   0   0   0   
      0   0   0   0   0   
      0   0   0   0   0   
      0   0   0   0   0   
      0   0   0   0   0   
      0   0   0   0   0   
      0   0   0   0   0   
      0   0   0   0   0   
      0   0   0   0   0   
      0   0   0   0   0   
      0   0   0   0   0   
      0   0   0   0   0   
      0   0   0   0   0   
      0   0   0   0   0   
      0   0   0   0   0   
      0   0   0   0   0   
      0   0   0   0   0   
      0   0   0   0   0   
      0   0   0   0   0   
      0   0   0   0   0   
      0   0   0   0   0   
      0   0   0   0   0   
      0   0   0   0   0   
      0   0   0   0   0   
      0   0   0   0   0   
      0   0   0   0   0   
      0   0   0   0   0   
      0   0   0   0   0   
      0   0   0   0   0   
      0   0   0   0   0   
      0   0   0   0   0   
      0   0   0   0   0   
      0   0   0   0   0   
      0   0   0   0   0   
      0   0   0   0   0   
      0   0   0   0   0   
      0   0   0   0   0   
      0   0   0   0   0   
      0   0   0   0   0   
      0   0   0   0   0   
      0   0   0   0   0   
      0   0   0   0   0   
      0   0   0   0   0   
      0   0   0   0   0   
      0   0   0   0   0   
      0   0   0   0   0   
      0   0   0   0   0   
      0   0   0   0   0   
      0   0   0   0   0   
      0   0   0   0   0   
      0   0   0   0   0   
      0   0   0   0   0   
      0   0   0   0   0   
      0   0   0   0   0   
      0   0   0   0   0   
      0   0   0   0   0   
      0   0   0   0   0   
      0   0   0   0   0   
      0   0   0   0   0   
      0   0   0   0   0   
      0   0   0   0   0   
      0   0   0   0   0   
      0   0   0   0   0   
      0   0   0   0   0   
      0   0   0   0   0   
      0   0   0   0   0   
      0   0   0   0   0   
      0   0   0   0   0   
      0   0   0   0   0   
      0   0   0   0   0   
      0   0   0   0   0   
      0   0   0   0   0   
      0   0   0   0   0   
      0   0   0   0   0   
      0   0   0   0   0   
      0   0   0   0   0   
      0   0   0   0   0   
      0   0   0   0   0   
      0   0   0   0   0   
      0   0   0   0   0   
      0   0   0   0   0   
      0   0   0   0   0   
      0   0   0   0   0   
      0   0   0   0   0   
      0   0   0   0   0   
      0   0   0   0   0   
      0   0   0   0   0   
      0   0   0   0   0   
      0   0   0   0   0   
      0   0   0   0   0   
      0   0   0   0   0   
      0   0   0   0   0   
      0   0   0   0   0   
      0   0   0   0   0   
      0   0   0   0   0   
      0   0   0   0   0   
      0   0   0   0   0   
      0   0   0   0   0   
      0   0   0   0   0   
      0   0   0   0   0   
      0   0   0   0   0   
      0   0   0   0   0   
      0   0   0   0   0   
      0   0   0   0   0   
      0   0   0   0   0   
      0   0   0   0   0   
      0   0   0   0   0   
      0   0   0   0   0   
      0   0   0   0   0   
      0   0   0   0   0   
      0   0   0   0   0   
      0   0   0   0   0   
      0   0   0   0   0   
      0   0   0   0   0   
      0   0   0   0   0   
      0   0   0   0   0   
      0   0   0   0   0   
      0   0   0   0   0   
      0   0   0   0   0   
      0   0   0   0   0   
      0   0   0   0   0   
      0   0   0   0   0   
      0   0   0   0   0   
      0   0   0   0   0   
      0   0   0   0   0   
      0   0   0   0   0   
      0   0   0   0   0   
      0   0   0   0   0   
      0   0   0   0   0   
      0   0   0   0   0   
      0   0   0   0   0   
      0   0   0   0   0   
      0   0   0   0   0   
      0   0   0   0   0   
      0   0   0   0   0   
      0   0   0   0   0   
      0   0   0   0   0   
      0   0   0   0   0   
      0   0   0   0   0   
      0   0   0   0   0   
      0   0   0   0   0   
      0   0   0   0   0   
      0   0   0   0   0   
      0   0   0   0   0   
      0   0   0   0   0   
      0   0   0   0   0   
      0   0   0   0   0   
      0   0   0   0   0   
      0   0   0   0   0   
      0.0829141642768   0.0829206180775   0.0829399771045   0.0829722339084   0.0830173749874   
      0.0830753791298   0.0831462150423   0.0832298382128   0.0833261869474   0.0834351775164   
      0.0835566983412   0.0836906031594   0.0838367031206   0.0839947577896   0.08416446507   
      0.0843454501135   0.0845372533456   0.0847393178199   0.0849509762077   0.085171437835   
      0.085399776291   0.0856349182376   0.0858756341508   0.0861205317982   0.086368053297   
      0.0866164765953   0.0868639221576   0.0871083655113   0.0873476561264   0.0875795428417   
      0.0878017057521   0.0880117941168   0.08820746949   0.0883864529099   0.088546574657   
      0.0886858248236   0.0888024027523   0.0888947633189   0.0889616580725   0.0890021693954   
      0.0890157361191   0.0890021693954   0.0889616580725   0.0888947633189   0.0888024027523   
      0.0886858248236   0.088546574657   0.0883864529099   0.08820746949   0.0880117941168   
      0.0878017057521   0.0875795428417   0.0873476561264   0.0871083655113   0.0868639221576   
      0.0866164765953   0.086368053297   0.0861205317982   0.0858756341508   0.0856349182376   
      0.085399776291   0.085171437835   0.0849509762077   0.0847393178199   0.0845372533456   
      0.0843454501135   0.08416446507   0.0839947577896   0.0838367031206   0.0836906031594   
      0.0835566983412   0.0834351775164   0.0833261869474   0.0832298382128   0.0831462150423   
      0.0830753791298   0.0830173749874   0.0829722339084   0.0829399771045   0.0829206180775   
      0.0911465092406   0.0911557173299   0.0911833397309   0.0912293703548   0.091293797413   
      0.0913766009172   0.0914777491019   0.0915971936948   0.0917348639494   0.0918906593406   
      0.0920644408267   0.092256020588   0.0924651501756   0.0926915070405   0.09293467947   
      0.0931941500356   0.0934692777542   0.0937592792883   0.094063209647   0.0943799430085   
      0.094708154445   0.0950463034873   0.0953926206066   0.0957450977951   0.0961014844785   
      0.0964592899774   0.0968157936357   0.0971680635426   0.0975129844873   0.0978472954116   
      0.098167636173   0.0984706029294   0.0987528109321   0.0990109630069   0.0992419215444   
      0.099442781462   0.0996109413505   0.0997441699304   0.0998406650073   0.0998991023461   
      0.0999186722751   0.0998991023461   0.0998406650073   0.0997441699304   0.0996109413505   
      0.099442781462   0.0992419215444   0.0990109630069   0.0987528109321   0.0984706029294   
      0.098167636173   0.0978472954116   0.0975129844873   0.0971680635426   0.0968157936357   
      0.0964592899774   0.0961014844785   0.0957450977951   0.0953926206066   0.0950463034873   
      0.094708154445   0.0943799430085   0.094063209647   0.0937592792883   0.0934692777542   
      0.0931941500356   0.09293467947   0.0926915070405   0.0924651501756   0.092256020588   
      0.0920644408267   0.0918906593406   0.0917348639494   0.0915971936948   0.0914777491019   
      0.0913766009172   0.091293797413   0.0912293703548   0.0911833397309   0.0911557173299   
      0.105135237148   0.105150205684   0.105195110672   0.105269949391   0.105374714455   
      0.105509389456   0.105673942743   0.105868319207   0.106092429919   0.106346139473   
      0.106629250869   0.106941487801   0.107282474242   0.107651711311   0.108048551492   
      0.108472170406   0.108921536532   0.109395379461   0.109892157517   0.110410025836   
      0.11094680626   0.111499960657   0.112066569475   0.112643317503   0.113226488856   
      0.113811973102   0.114395284283   0.114971594174   0.115535780629   0.116082491221   
      0.116606221626   0.117101407378   0.117562526865   0.117984212596   0.11836136721   
      0.118689280131   0.118963740547   0.119181142287   0.119338576382   0.11943390746   
      0.119465830782   0.11943390746   0.119338576382   0.119181142287   0.118963740547   
      0.118689280131   0.11836136721   0.117984212596   0.117562526865   0.117101407378   
      0.116606221626   0.116082491221   0.115535780629   0.114971594174   0.114395284283   
      0.113811973102   0.113226488856   0.112643317503   0.112066569475   0.111499960657   
      0.11094680626   0.110410025836   0.109892157517   0.109395379461   0.108921536532   
      0.108472170406   0.108048551492   0.107651711311   0.107282474242   0.106941487801   
      0.106629250869   0.106346139473   0.106092429919   0.105868319207   0.105673942743   
      0.105509389456   0.105374714455   0.105269949391   0.105195110672   0.105150205684   
      0.116576536124   0.116597737177   0.116661340699   0.116767346498   0.116915749934   
      0.117106535355   0.117339666707   0.117615075169   0.117932643578   0.118292187462   
      0.118693432446   0.119135987874   0.11961931654   0.120142700567   0.120705203589   
      0.121305629651   0.121942479482   0.122613905126   0.123317664239   0.12405107577   
      0.124810979065   0.125593698779   0.126395018214   0.127210163833   0.128033803658   
      0.128860062059   0.129682553007   0.130494433247   0.131288476021   0.13205716506   
      0.132792807463   0.133487663098   0.134134087116   0.134724681354   0.135252449726   
      0.1357109523   0.136094452617   0.13639805291   0.136617812275   0.136750843447   
      0.136795384587   0.136750843447   0.136617812275   0.13639805291   0.136094452617   
      0.1357109523   0.135252449726   0.134724681354   0.134134087116   0.133487663098   
      0.132792807463   0.13205716506   0.131288476021   0.130494433247   0.129682553007   
      0.128860062059   0.128033803658   0.127210163833   0.126395018214   0.125593698779   
      0.124810979065   0.12405107577   0.123317664239   0.122613905126   0.121942479482   
      0.121305629651   0.120705203589   0.120142700567   0.11961931654   0.119135987874   
      0.118693432446   0.118292187462   0.117932643578   0.117615075169   0.117339666707   
      0.117106535355   0.116915749934   0.116767346498   0.116661340699   0.116597737177   
      0.127257061759   0.127284536798   0.127366962083   0.127504336342   0.127696651508   
      0.12794388366   0.128245980123   0.128602842478   0.129014305253   0.129480110023   
      0.1299998747   0.130573057837   0.131198917913   0.131876467707   0.132604424167   
      0.133381154422   0.134204619012   0.135072313811   0.135981212575   0.136927712537   
      0.137907585863   0.138915940149   0.139947191339   0.140995052457   0.142052541348   
      0.143112010137   0.144165198418   0.145203311198   0.146217121517   0.147197096388   
      0.148133543482   0.149016774807   0.149837282653   0.150585922352   0.151254095983   
      0.151833931041   0.15231844827   0.152701713287   0.152978967296   0.153146732895   
      0.153202891894   0.153146732895   0.152978967296   0.152701713287   0.15231844827   
      0.151833931041   0.151254095983   0.150585922352   0.149837282653   0.149016774807   
      0.148133543482   0.147197096388   0.146217121517   0.145203311198   0.144165198418   
      0.143112010137   0.142052541348   0.140995052457   0.139947191339   0.138915940149   
      0.137907585863   0.136927712537   0.135981212575   0.135072313811   0.134204619012   
      0.133381154422   0.132604424167   0.131876467707   0.131198917913   0.130573057837   
      0.1299998747   0.129480110023   0.129014305253   0.128602842478   0.128245980123   
      0.12794388366   0.127696651508   0.127504336342   0.127366962083   0.127284536798   
      0.136485568945   0.136518539995   0.136617451365   0.136782295463   0.137013052069   
      0.137309676848   0.137672084985   0.138100129714   0.138593575448   0.139152065253   
      0.139775082445   0.140461906208   0.141211561278   0.142022762018   0.142893851518   
      0.143822736751   0.144806821322   0.145842937836   0.146927282495   0.148055355026   
      0.149221907491   0.150420905833   0.15164550808   0.152888062979   0.154140132329   
      0.155392539531   0.156635445757   0.157858453913   0.15905073907   0.160201202676   
      0.161298646494   0.162331961153   0.163290323428   0.164163395985   0.164941523324   
      0.165615918001   0.166178831817   0.16662370747   0.166945307002   0.167139814279   
      0.167204909478   0.167139814279   0.166945307002   0.16662370747   0.166178831817   
      0.165615918001   0.164941523324   0.164163395985   0.163290323428   0.162331961153   
      0.161298646494   0.160201202676   0.15905073907   0.157858453913   0.156635445757   
      0.155392539531   0.154140132329   0.152888062979   0.15164550808   0.150420905833   
      0.149221907491   0.148055355026   0.146927282495   0.145842937836   0.144806821322   
      0.143822736751   0.142893851518   0.142022762018   0.141211561278   0.140461906208   
      0.139775082445   0.139152065253   0.138593575448   0.138100129714   0.137672084985   
      0.137309676848   0.137013052069   0.136782295463   0.136617451365   0.136518539995   
      0.143747905042   0.143785151393   0.143896885522   0.144083089981   0.144343726717   
      0.144678723459   0.145087954375   0.145571214725   0.146128189254   0.146758414064   
      0.147461231794   0.148235740091   0.149080733574   0.149994639808   0.150975450222   
      0.152020647376   0.153127130575   0.154291142384   0.155508199251   0.156773029927   
      0.158079525811   0.15942070753   0.160788711991   0.162174803726   0.1635694136   
      0.164962206846   0.166342181017   0.167697792857   0.169017111514   0.170287993991   
      0.171498277479   0.172635982347   0.173689519124   0.174647892873   0.175500898775   
      0.176239303606   0.176855008744   0.177341191463   0.177692422274   0.177904756956   
      0.177975802537   0.177904756956   0.177692422274   0.177341191463   0.176855008744   
      0.176239303606   0.175500898775   0.174647892873   0.173689519124   0.172635982347   
      0.171498277479   0.170287993991   0.169017111514   0.167697792857   0.166342181017   
      0.164962206846   0.1635694136   0.162174803726   0.160788711991   0.15942070753   
      0.158079525811   0.156773029927   0.155508199251   0.154291142384   0.153127130575   
      0.152020647376   0.150975450222   0.149994639808   0.149080733574   0.148235740091   
      0.147461231794   0.146758414064   0.146128189254   0.145571214725   0.145087954375   
      0.144678723459   0.144343726717   0.144083089981   0.143896885522   0.143785151393   
      0.148698037112   0.148738146713   0.148858467416   0.149058971939   0.149339604802   
      0.149700267161   0.150140795268   0.150660932324   0.151260293437   0.151938323492   
      0.152694247785   0.153527015519   0.154435236479   0.155417111607   0.156470358641   
      0.15759213455   0.158778957105   0.16002662858   0.161330165188   0.162683736386   
      0.164080618533   0.165513167464   0.166972814319   0.168450088359   0.16993466949   
      0.17141547188   0.172880758457   0.174318284317   0.175715465384   0.177059567162   
      0.178337907288   0.179538064944   0.180648090068   0.181656705712   0.182553497741   
      0.183329087191   0.183975281931   0.184485205499   0.184853402104   0.185075917616   
      0.185150356842   0.185075917616   0.184853402104   0.184485205499   0.183975281931   
      0.183329087191   0.182553497741   0.181656705712   0.180648090068   0.179538064944   
      0.178337907288   0.177059567162   0.175715465384   0.174318284317   0.172880758457   
      0.17141547188   0.16993466949   0.168450088359   0.166972814319   0.165513167464   
      0.164080618533   0.162683736386   0.161330165188   0.16002662858   0.158778957105   
      0.15759213455   0.156470358641   0.155417111607   0.154435236479   0.153527015519   
      0.152694247785   0.151938323492   0.151260293437   0.150660932324   0.150140795268   
      0.149700267161   0.149339604802   0.149058971939   0.148858467416   0.148738146713   
      0.15119257072   0.151234103602   0.151358692181   0.151566303102   0.151856870217   
      0.152230278596   0.152686341835   0.153224772434   0.15384514497   0.154546851883   
      0.15532905178   0.156190610397   0.157130034619   0.158145400397   0.159234275863   
      0.160393641536   0.161619810185   0.162908349541   0.164254011694   0.165650673531   
      0.167091292851   0.168567884842   0.170071523261   0.171592369946   0.173119735139   
      0.174642169653   0.176147588174   0.177623421182   0.179056791237   0.180434707912   
      0.181744274601   0.182972899938   0.184108506618   0.185139731029   0.186056108131   
      0.186848237377   0.187507926853   0.188028314197   0.188403963959   0.188630941864   
      0.188706866857   0.188630941864   0.188403963959   0.188028314197   0.187507926853   
      0.186848237377   0.186056108131   0.185139731029   0.184108506618   0.182972899938   
      0.181744274601   0.180434707912   0.179056791237   0.177623421182   0.176147588174   
      0.174642169653   0.173119735139   0.171592369946   0.170071523261   0.168567884842   
      0.167091292851   0.165650673531   0.164254011694   0.162908349541   0.161619810185   
      0.160393641536   0.159234275863   0.158145400397   0.157130034619   0.156190610397   
      0.15532905178   0.154546851883   0.15384514497   0.153224772434   0.152686341835   
      0.152230278596   0.151856870217   0.151566303102   0.151358692181   0.151234103602   
      0.15119257072   0.151234103602   0.151358692181   0.151566303102   0.151856870217   
      0.152230278596   0.152686341835   0.153224772434   0.15384514497   0.154546851883   
      0.15532905178   0.156190610397   0.157130034619   0.158145400397   0.159234275863   
      0.160393641536   0.161619810185   0.162908349541   0.164254011694   0.165650673531   
      0.167091292851   0.168567884842   0.170071523261   0.171592369946   0.173119735139   
      0.174642169653   0.176147588174   0.177623421182   0.179056791237   0.180434707912   
      0.181744274601   0.182972899938   0.184108506618   0.185139731029   0.186056108131   
      0.186848237377   0.187507926853   0.188028314197   0.188403963959   0.188630941864   
      0.188706866857   0.188630941864   0.188403963959   0.188028314197   0.187507926853   
      0.186848237377   0.186056108131   0.185139731029   0.184108506618   0.182972899938   
      0.181744274601   0.180434707912   0.179056791237   0.177623421182   0.176147588174   
      0.174642169653   0.173119735139   0.171592369946   0.170071523261   0.168567884842   
      0.167091292851   0.165650673531   0.164254011694   0.162908349541   0.161619810185   
      0.160393641536   0.159234275863   0.158145400397   0.157130034619   0.156190610397   
      0.15532905178   0.154546851883   0.15384514497   0.153224772434   0.152686341835   
      0.152230278596   0.151856870217   0.151566303102   0.151358692181   0.151234103602   
      0.148698037112   0.148738146713   0.148858467416   0.149058971939   0.149339604802   
      0.149700267161   0.150140795268   0.150660932324   0.151260293437   0.151938323492   
      0.152694247785   0.153527015519   0.154435236479   0.155417111607   0.156470358641   
      0.15759213455   0.158778957105   0.16002662858   0.161330165188   0.162683736386   
      0.164080618533   0.165513167464   0.166972814319   0.168450088359   0.16993466949   
      0.17141547188   0.172880758457   0.174318284317   0.175715465384   0.177059567162   
      0.178337907288   0.179538064944   0.180648090068   0.181656705712   0.182553497741   
      0.183329087191   0.183975281931   0.184485205499   0.184853402104   0.185075917616   
      0.185150356842   0.185075917616   0.184853402104   0.184485205499   0.183975281931   
      0.183329087191   0.182553497741   0.181656705712   0.180648090068   0.179538064944   
      0.178337907288   0.177059567162   0.175715465384   0.174318284317   0.172880758457   
      0.17141547188   0.16993466949   0.168450088359   0.166972814319   0.165513167464   
      0.164080618533   0.162683736386   0.161330165188   0.16002662858   0.158778957105   
      0.15759213455   0.156470358641   0.155417111607   0.154435236479   0.153527015519   
      0.152694247785   0.151938323492   0.151260293437   0.150660932324   0.150140795268   
      0.149700267161   0.149339604802   0.149058971939   0.148858467416   0.148738146713   
      0.143747905042   0.143785151393   0.143896885522   0.144083089981   0.144343726717   
      0.144678723459   0.145087954375   0.145571214725   0.146128189254   0.146758414064   
      0.147461231794   0.148235740091   0.149080733574   0.149994639808   0.150975450222   
      0.152020647376   0.153127130575   0.154291142384   0.155508199251   0.156773029927   
      0.158079525811   0.15942070753   0.160788711991   0.162174803726   0.1635694136   
      0.164962206846   0.166342181017   0.167697792857   0.169017111514   0.170287993991   
      0.171498277479   0.172635982347   0.173689519124   0.174647892873   0.175500898775   
      0.176239303606   0.176855008744   0.177341191463   0.177692422274   0.177904756956   
      0.177975802537   0.177904756956   0.177692422274   0.177341191463   0.176855008744   
      0.176239303606   0.175500898775   0.174647892873   0.173689519124   0.172635982347   
      0.171498277479   0.170287993991   0.169017111514   0.167697792857   0.166342181017   
      0.164962206846   0.1635694136   0.162174803726   0.160788711991   0.15942070753   
      0.158079525811   0.156773029927   0.155508199251   0.154291142384   0.153127130575   
      0.152020647376   0.150975450222   0.149994639808   0.149080733574   0.148235740091   
      0.147461231794   0.146758414064   0.146128189254   0.145571214725   0.145087954375   
      0.144678723459   0.144343726717   0.144083089981   0.143896885522   0.143785151393   
      0.136485568945   0.136518539995   0.136617451365   0.136782295463   0.137013052069   
      0.137309676848   0.137672084985   0.138100129714   0.138593575448   0.139152065253   
      0.139775082445   0.140461906208   0.141211561278   0.142022762018   0.142893851518   
      0.143822736751   0.144806821322   0.145842937836   0.146927282495   0.148055355026   
      0.149221907491   0.150420905833   0.15164550808   0.152888062979   0.154140132329   
      0.155392539531   0.156635445757   0.157858453913   0.15905073907   0.160201202676   
      0.161298646494   0.162331961153   0.163290323428   0.164163395985   0.164941523324   
      0.165615918001   0.166178831817   0.16662370747   0.166945307002   0.167139814279   
      0.167204909478   0.167139814279   0.166945307002   0.16662370747   0.166178831817   
      0.165615918001   0.164941523324   0.164163395985   0.163290323428   0.162331961153   
      0.161298646494   0.160201202676   0.15905073907   0.157858453913   0.156635445757   
      0.155392539531   0.154140132329   0.152888062979   0.15164550808   0.150420905833   
      0.149221907491   0.148055355026   0.146927282495   0.145842937836   0.144806821322   
      0.143822736751   0.142893851518   0.142022762018   0.141211561278   0.140461906208   
      0.139775082445   0.139152065253   0.138593575448   0.138100129714   0.137672084985   
      0.137309676848   0.137013052069   0.136782295463   0.136617451365   0.136518539995   
      0.127257061759   0.127284536798   0.127366962083   0.127504336342   0.127696651508   
      0.12794388366   0.128245980123   0.128602842478   0.129014305253   0.129480110023   
      0.1299998747   0.130573057837   0.131198917913   0.131876467707   0.132604424167   
      0.133381154422   0.134204619012   0.135072313811   0.135981212575   0.136927712537   
      0.137907585863   0.138915940149   0.139947191339   0.140995052457   0.142052541348   
      0.143112010137   0.144165198418   0.145203311198   0.146217121517   0.147197096388   
      0.148133543482   0.149016774807   0.149837282653   0.150585922352   0.151254095983   
      0.151833931041   0.15231844827   0.152701713287   0.152978967296   0.153146732895   
      0.153202891894   0.153146732895   0.152978967296   0.152701713287   0.15231844827   
      0.151833931041   0.151254095983   0.150585922352   0.149837282653   0.149016774807   
      0.148133543482   0.147197096388   0.146217121517   0.145203311198   0.144165198418   
      0.143112010137   0.142052541348   0.140995052457   0.139947191339   0.138915940149   
      0.137907585863   0.136927712537   0.135981212575   0.135072313811   0.134204619012   
      0.133381154422   0.132604424167   0.131876467707   0.131198917913   0.130573057837   
      0.1299998747   0.129480110023   0.129014305253   0.128602842478   0.128245980123   