<?xml version="1.0"?>
<VTKFile type="ImageData" version="0.1" byte_order="LittleEndian">
  <ImageData WholeExtent="0 79 0 19 0 19" Origin="0 0 0" Spacing="1 1 1">
  <Piece Extent="0 79 0 19 0 19">
    <PointData Scalars="density">
       <DataArray type="Float32" Name="reddensity" NumberOfComponents="1" format="ascii">
      0   0   0   0   0   
      0   0   0   0   0   
      0   0   0   0   0   
      0   0   0   0   0   
      0   0   0   0   0   
      0   0   0   0   0   
      0   0   0   0   0   
      0   0   0   0   0   
      0   0   0   0   0   
      0   0   0   0   0   
      0   0   0   0   0   
      0   0   0   0   0   
      0   0   0   0   0   
      0   0   0   0   0   
      0   0   0   0   0   
      0   0   0   0   0   
      0   0   0   0   0   
      0   0   0   0   0   
      0   0   0   0   0   
      0   0   0   0   0   
      0   0   0   0   0   
      0   0   0   0   0   
      0   0   0   0   0   
      0   0   0   0   0   
      0   0   0   0   0   
      0   0   0   0   0   
      0   0   0   0   0   
      0   0   0   0   0   
      0   0   0   0   0   
      0   0   0   0   0   
      0   0   0   0   0   
      0   0   0   0   0   
      0   0   0   0   0   
      0   0   0   0   0   
      0   0   0   0   0   
      0   0   0   0   0   
      0   0   0   0   0   
      0   0   0   0   0   
      0   0   0   0   0   
      0   0   0   0   0   
      0   0   0   0   0   
      0   0   0   0   0   
      0   0   0   0   0   
      0   0   0   0   0   
      0   0   0   0   0   
      0   0   0   0   0   
      0   0   0   0   0   
      0   0   0   0   0   
      0   0   0   0   0   
      0   0   0   0   0   
      0   0   0   0   0   
      0   0   0   0   0   
      0   0   0   0   0   
      0   0   0   0   0   
      0   0   0   0   0   
      0   0   0   0   0   
      0   0   0   0   0   
      0   0   0   0   0   
      0   0   0   0   0   
      0   0   0   0   0   
      0   0   0   0   0   
      0   0   0   0   0   
      0   0   0   0   0   
      0   0   0   0   0   
      0   0   0   0   0   
      0   0   0   0   0   
      0   0   0   0   0   
      0   0   0   0   0   
      0   0   0   0   0   
      0   0   0   0   0   
      0   0   0   0   0   
      0   0   0   0   0   
      0   0   0   0   0   
      0   0   0   0   0   
      0   0   0   0   0   
      0   0   0   0   0   
      0   0   0   0   0   
      0   0   0   0   0   
      0   0   0   0   0   
      0   0   0   0   0   
      0   0   0   0   0   
      0   0   0   0   0   
      0   0   0   0   0   
      0   0   0   0   0   
      0   0   0   0   0   
      0   0   0   0   0   
      0   0   0   0   0   
      0   0   0   0   0   
      0   0   0   0   0   
      0   0   0   0   0   
      0   0   0   0   0   
      0   0   0   0   0   
      0   0   0   0   0   
      0   0   0   0   0   
      0   0   0   0   0   
      0   0   0   0   0   
      0   0   0   0   0   
      0   0   0   0   0   
      0   0   0   0   0   
      0   0   0   0   0   
      0   0   0   0   0   
      0   0   0   0   0   
      0   0   0   0   0   
      0   0   0   0   0   
      0   0   0   0   0   
      0   0   0   0   0   
      0   0   0   0   0   
      0   0   0   0   0   
      0   0   0   0   0   
      0   0   0   0   0   
      0   0   0   0   0   
      0   0   0   0   0   
      0   0   0   0   0   
      0   0   0   0   0   
      0   0   0   0   0   
      0   0   0   0   0   
      0   0   0   0   0   
      0   0   0   0   0   
      0   0   0   0   0   
      0   0   0   0   0   
      0   0   0   0   0   
      0   0   0   0   0   
      0   0   0   0   0   
      0   0   0   0   0   
      0   0   0   0   0   
      0   0   0   0   0   
      0   0   0   0   0   
      0   0   0   0   0   
      0   0   0   0   0   
      0   0   0   0   0   
      0   0   0   0   0   
      0   0   0   0   0   
      0   0   0   0   0   
      0   0   0   0   0   
      0   0   0   0   0   
      0   0   0   0   0   
      0   0   0   0   0   
      0   0   0   0   0   
      0   0   0   0   0   
      0   0   0   0   0   
      0   0   0   0   0   
      0   0   0   0   0   
      0   0   0   0   0   
      0   0   0   0   0   
      0   0   0   0   0   
      0   0   0   0   0   
      0   0   0   0   0   
      0   0   0   0   0   
      0   0   0   0   0   
      0   0   0   0   0   
      0   0   0   0   0   
      0   0   0   0   0   
      0   0   0   0   0   
      0   0   0   0   0   
      0   0   0   0   0   
      0   0   0   0   0   
      0   0   0   0   0   
      0   0   0   0   0   
      0   0   0   0   0   
      0   0   0   0   0   
      0   0   0   0   0   
      0   0   0   0   0   
      0   0   0   0   0   
      0   0   0   0   0   
      0   0   0   0   0   
      0   0   0   0   0   
      0   0   0   0   0   
      0   0   0   0   0   
      0   0   0   0   0   
      0   0   0   0   0   
      0   0   0   0   0   
      0   0   0   0   0   
      0   0   0   0   0   
      0   0   0   0   0   
      0   0   0   0   0   
      0   0   0   0   0   
      0   0   0   0   0   
      0   0   0   0   0   
      0   0   0   0   0   
      0   0   0   0   0   
      0   0   0   0   0   
      0   0   0   0   0   
      0   0   0   0   0   
      0   0   0   0   0   
      0   0   0   0   0   
      0   0   0   0   0   
      0   0   0   0   0   
      0   0   0   0   0   
      0   0   0   0   0   
      0   0   0   0   0   
      0   0   0   0   0   
      0   0   0   0   0   
      0   0   0   0   0   
      0   0   0   0   0   
      0   0   0   0   0   
      0   0   0   0   0   
      0   0   0   0   0   
      0   0   0   0   0   
      0   0   0   0   0   
      0   0   0   0   0   
      0   0   0   0   0   
      0   0   0   0   0   
      0   0   0   0   0   
      0   0   0   0   0   
      0   0   0   0   0   
      0   0   0   0   0   
      0   0   0   0   0   
      0   0   0   0   0   
      0   0   0   0   0   
      0   0   0   0   0   
      0   0   0   0   0   
      0   0   0   0   0   
      0   0   0   0   0   
      0   0   0   0   0   
      0   0   0   0   0   
      0   0   0   0   0   
      0   0   0   0   0   
      0   0   0   0   0   
      0   0   0   0   0   
      0   0   0   0   0   
      0   0   0   0   0   
      0   0   0   0   0   
      0   0   0   0   0   
      0   0   0   0   0   
      0   0   0   0   0   
      0   0   0   0   0   
      0   0   0   0   0   
      0   0   0   0   0   
      0   0   0   0   0   
      0   0   0   0   0   
      0   0   0   0   0   
      0   0   0   0   0   
      0   0   0   0   0   
      0   0   0   0   0   
      0   0   0   0   0   
      0   0   0   0   0   
      0   0   0   0   0   
      0   0   0   0   0   
      0   0   0   0   0   
      0   0   0   0   0   
      0   0   0   0   0   
      0   0   0   0   0   
      0   0   0   0   0   
      0   0   0   0   0   
      0   0   0   0   0   
      0   0   0   0   0   
      0   0   0   0   0   
      0   0   0   0   0   
      0   0   0   0   0   
      0   0   0   0   0   
      0   0   0   0   0   
      0   0   0   0   0   
      0   0   0   0   0   
      0   0   0   0   0   
      0   0   0   0   0   
      0   0   0   0   0   
      0   0   0   0   0   
      0   0   0   0   0   
      0   0   0   0   0   
      0   0   0   0   0   
      0   0   0   0   0   
      0   0   0   0   0   
      0   0   0   0   0   
      0   0   0   0   0   
      0   0   0   0   0   
      0   0   0   0   0   
      0   0   0   0   0   
      0   0   0   0   0   
      0   0   0   0   0   
      0   0   0   0   0   
      0   0   0   0   0   
      0   0   0   0   0   
      0   0   0   0   0   
      0   0   0   0   0   
      0   0   0   0   0   
      0   0   0   0   0   
      0   0   0   0   0   
      0   0   0   0   0   
      0   0   0   0   0   
      0   0   0   0   0   
      0   0   0   0   0   
      0   0   0   0   0   
      0   0   0   0   0   
      0   0   0   0   0   
      0   0   0   0   0   
      0   0   0   0   0   
      0   0   0   0   0   
      0   0   0   0   0   
      0   0   0   0   0   
      0   0   0   0   0   
      0   0   0   0   0   
      0   0   0   0   0   
      0   0   0   0   0   
      0   0   0   0   0   
      0   0   0   0   0   
      0   0   0   0   0   
      0   0   0   0   0   
      0   0   0   0   0   
      0   0   0   0   0   
      0   0   0   0   0   
      0   0   0   0   0   
      0   0   0   0   0   
      0   0   0   0   0   
      0   0   0   0   0   
      0   0   0   0   0   
      0   0   0   0   0   
      0   0   0   0   0   
      0   0   0   0   0   
      0   0   0   0   0   
      0   0   0   0   0   
      0   0   0   0   0   
      0   0   0   0   0   
      0   0   0   0   0   
      0   0   0   0   0   
      0   0   0   0   0   
      0   0   0   0   0   
      0   0   0   0   0   
      0   0   0   0   0   
      0   0   0   0   0   
      0   0   0   0   0   
      0   0   0   0   0   
      0   0   0   0   0   
      0   0   0   0   0   
      0   0   0   0   0   
      0   0   0   0   0   
      0   0   0   0   0   
      0   0   0   0   0   
      0   0   0   0   0   
      0   0   0   0   0   
      0   0   0   0   0   
      0   0   0   0   0   
      0   0   0   0   0   
      0   0   0   0   0   
      0   0   0   0   0   
      0   0   0   0   0   
      0   0   0   0   0   
      0.0832007455367   0.0832065968945   0.0832241455049   0.0832533746817   0.0832942556207   
      0.0833467458939   0.0834107873116   0.0834863031275   0.0835731945559   0.0836713365708   
      0.0837805729622   0.0839007106329   0.0840315131348   0.0841726934697   0.0843239062088   
      0.084484739029   0.0846547038114   0.0848332275086   0.0850196430497   0.0852131806242   
      0.0854129597498   0.0856179825982   0.085827129101   0.0860391543928   0.0862526891558   
      0.0864662434097   0.0866782142237   0.086886897731   0.0870905056802   0.0872871865772   
      0.0874750512593   0.0876522025081   0.0878167680675   0.0879669361981   0.0881009926912   
      0.0882173581006   0.0883146238375   0.0883915857366   0.0884472737335   0.088480976407   
      0.088492259328   0.088480976407   0.0884472737335   0.0883915857366   0.0883146238375   
      0.0882173581006   0.0881009926912   0.0879669361981   0.0878167680675   0.0876522025081   
      0.0874750512593   0.0872871865772   0.0870905056802   0.086886897731   0.0866782142237   
      0.0864662434097   0.0862526891558   0.0860391543928   0.085827129101   0.0856179825982   
      0.0854129597498   0.0852131806242   0.0850196430497   0.0848332275086   0.0846547038114   
      0.084484739029   0.0843239062088   0.0841726934697   0.0840315131348   0.0839007106329   
      0.0837805729622   0.0836713365708   0.0835731945559   0.0834863031275   0.0834107873116   
      0.0833467458939   0.0832942556207   0.0832533746817   0.0832241455049   0.0832065968945   
      0.0915598040347   0.0915681639573   0.091593237087   0.0916350030621   0.09169342645   
      0.0917684544791   0.0918600138228   0.091968006394   0.0920923041101   0.0922327425831   
      0.0923891136999   0.0925611570708   0.0927485503489   0.0929508984604   0.0931677218313   
      0.0933984437588   0.0936423771523   0.0938987109508   0.0941664966235   0.0944446352584   
      0.0947318658457   0.0950267554514   0.0953276920518   0.095632880844   0.0959403448523   
      0.0962479306139   0.0965533196258   0.096854046085   0.0971475212354   0.0974310643715   
      0.0977019402344   0.0979574021987   0.0981947403046   0.0984113328554   0.0986047000137   
      0.0987725575978   0.0989128691374   0.0990238941981   0.0991042310446   0.099152851879   
      0.0991691291618   0.099152851879   0.0991042310446   0.0990238941981   0.0989128691374   
      0.0987725575978   0.0986047000137   0.0984113328554   0.0981947403046   0.0979574021987   
      0.0977019402344   0.0974310643715   0.0971475212354   0.096854046085   0.0965533196258   
      0.0962479306139   0.0959403448523   0.095632880844   0.0953276920518   0.0950267554514   
      0.0947318658457   0.0944446352584   0.0941664966235   0.0938987109508   0.0936423771523   
      0.0933984437588   0.0931677218313   0.0929508984604   0.0927485503489   0.0925611570708   
      0.0923891136999   0.0922327425831   0.0920923041101   0.091968006394   0.0918600138228   
      0.0917684544791   0.09169342645   0.0916350030621   0.091593237087   0.0915681639573   
      0.105814361213   0.105827969211   0.105868784198   0.105936778379   0.106031902835   
      0.106154083594   0.106303216067   0.10647915777   0.106681719285   0.10691065337   
      0.10716564218   0.10744628257   0.107752069487   0.108082377548   0.108436440965   
      0.108813332084   0.109211938953   0.109630942458   0.110068793739   0.110523692767   
      0.110993569106   0.111476066061   0.111968529467   0.112468002488   0.112971227738   
      0.113474657961   0.113974476322   0.114466627072   0.114946856977   0.115410767461   
      0.115853876882   0.116271691849   0.116659785911   0.117013883505   0.117329946575   
      0.117604261008   0.11783351981   0.11801489997   0.118146130035   0.118225545737   
      0.118252131446   0.118225545737   0.118146130035   0.11801489997   0.11783351981   
      0.117604261008   0.117329946575   0.117013883505   0.116659785911   0.116271691849   
      0.115853876882   0.115410767461   0.114946856977   0.114466627072   0.113974476322   
      0.113474657961   0.112971227738   0.112468002488   0.111968529467   0.111476066061   
      0.110993569106   0.110523692767   0.110068793739   0.109630942458   0.109211938953   
      0.108813332084   0.108436440965   0.108082377548   0.107752069487   0.10744628257   
      0.10716564218   0.10691065337   0.106681719285   0.10647915777   0.106303216067   
      0.106154083594   0.106031902835   0.105936778379   0.105868784198   0.105827969211   
      0.117545951049   0.117565235685   0.117623077578   0.117719439518   0.117854255609   
      0.118027425385   0.118238805495   0.118488198845   0.118775341128   0.119099884651   
      0.119461379402   0.119859251347   0.120292778023   0.120761061587   0.121262999622   
      0.121797254145   0.122362219492   0.12295598991   0.123576327986   0.124220635201   
      0.12488592617   0.125568808248   0.126265468345   0.126971668771   0.127682753888   
      0.128393669136   0.129098993653   0.129792987304   0.130469652301   0.131122809023   
      0.131746184889   0.132333514474   0.13287864839   0.133375667877   0.133819001616   
      0.134203540999   0.134524749945   0.134778765483   0.134962485513   0.135073640607   
      0.135110847257   0.135073640607   0.134962485513   0.134778765483   0.134524749945   
      0.134203540999   0.133819001616   0.133375667877   0.13287864839   0.132333514474   
      0.131746184889   0.131122809023   0.130469652301   0.129792987304   0.129098993653   
      0.128393669136   0.127682753888   0.126971668771   0.126265468345   0.125568808248   
      0.12488592617   0.124220635201   0.123576327986   0.12295598991   0.122362219492   
      0.121797254145   0.121262999622   0.120761061587   0.120292778023   0.119859251347   
      0.119461379402   0.119099884651   0.118775341128   0.118488198845   0.118238805495   
      0.118027425385   0.117854255609   0.117719439518   0.117623077578   0.117565235685   
      0.128520353824   0.128545345187   0.128620303074   0.128745177307   0.128919878959   
      0.129144272354   0.129418163747   0.129741286602   0.130113283356   0.130533683592   
      0.1310018786   0.13151709234   0.132078348979   0.132684437273   0.133333872301   
      0.134024855235   0.134755232127   0.13552245296   0.136323532498   0.137155014745   
      0.138012943078   0.138892838254   0.139789686593   0.140697940563   0.141611533796   
      0.142523912198   0.143428082305   0.144316677372   0.145182040928   0.146016326702   
      0.146811613003   0.147560028867   0.148253888627   0.148885831026   0.149448958724   
      0.149936973853   0.150344305417   0.150666224524   0.150898943885   0.151039698503   
      0.151086805101   0.151039698503   0.150898943885   0.150666224524   0.150344305417   
      0.149936973853   0.149448958724   0.148885831026   0.148253888627   0.147560028867   
      0.146811613003   0.146016326702   0.145182040928   0.144316677372   0.143428082305   
      0.142523912198   0.141611533796   0.140697940563   0.139789686593   0.138892838254   
      0.138012943078   0.137155014745   0.136323532498   0.13552245296   0.134755232127   
      0.134024855235   0.133333872301   0.132684437273   0.132078348979   0.13151709234   
      0.1310018786   0.130533683592   0.130113283356   0.129741286602   0.129418163747   
      0.129144272354   0.128919878959   0.128745177307   0.128620303074   0.128545345187   
      0.138007458323   0.138037436704   0.138127350332   0.138277132677   0.138486666214   
      0.138755772388   0.139084197457   0.139471594105   0.139917498745   0.140421304457   
      0.140982229574   0.141599282039   0.142271219797   0.142996507699   0.143773271614   
      0.144599250765   0.145471749581   0.146387590737   0.147343071358   0.14833392465   
      0.149355289474   0.150401690474   0.151467031359   0.152544603748   0.153627113608   
      0.154706726779   0.15577513432   0.156823637604   0.15784325212   0.158824828051   
      0.159759184817   0.160637256038   0.161450240859   0.162189757226   0.162847992645   
      0.163417848063   0.163893070841   0.164268373249   0.16453953342   0.164703476342   
      0.164758332994   0.164703476342   0.16453953342   0.164268373249   0.163893070841   
      0.163417848063   0.162847992645   0.162189757226   0.161450240859   0.160637256038   
      0.159759184817   0.158824828051   0.15784325212   0.156823637604   0.15577513432   
      0.154706726779   0.153627113608   0.152544603748   0.151467031359   0.150401690474   
      0.149355289474   0.14833392465   0.147343071358   0.146387590737   0.145471749581   
      0.144599250765   0.143773271614   0.142996507699   0.142271219797   0.141599282039   
      0.140982229574   0.140421304457   0.139917498745   0.139471594105   0.139084197457   
      0.138755772388   0.138486666214   0.138277132677   0.138127350332   0.138037436704   
      0.145471609054   0.145505455461   0.145606967532   0.145776061484   0.14601258989   
      0.146316329943   0.146686966898   0.147124072643   0.147627079302   0.148195247892   
      0.14882763209   0.149523037344   0.150279975738   0.151096617245   0.151970738334   
      0.152899669187   0.153880241189   0.15490873669   0.155980843398   0.15709161606   
      0.158235448234   0.159406057052   0.160596483674   0.161799111853   0.163005706437   
      0.164207472929   0.165395138282   0.166559052146   0.167689306734   0.168775872531   
      0.169808746221   0.170778106667   0.171674474346   0.172488869651   0.173212965586   
      0.173839230834   0.174361059674   0.174772885904   0.175070278525   0.175250017567   
      0.175310148935   0.175250017567   0.175070278525   0.174772885904   0.174361059674   
      0.173839230834   0.173212965586   0.172488869651   0.171674474346   0.170778106667   
      0.169808746221   0.168775872531   0.167689306734   0.166559052146   0.165395138282   
      0.164207472929   0.163005706437   0.161799111853   0.160596483674   0.159406057052   
      0.158235448234   0.15709161606   0.155980843398   0.15490873669   0.153880241189   
      0.152899669187   0.151970738334   0.151096617245   0.150279975738   0.149523037344   
      0.14882763209   0.148195247892   0.147627079302   0.147124072643   0.146686966898   
      0.146316329943   0.14601258989   0.145776061484   0.145606967532   0.145505455461   
      0.150557194167   0.150593623567   0.150702879862   0.150884864763   0.15113940585   
      0.151466243601   0.15186501314   0.15233522064   0.152876214335   0.153487150189   
      0.154166952359   0.15491426877   0.155727422318   0.15660435852   0.157542590733   
      0.158539144447   0.159590502544   0.160692553802   0.16184054727   0.1630290554   
      0.164251948954   0.165502386686   0.166772822532   0.168055032599   0.169340163544   
      0.170618803045   0.171881072063   0.173116737469   0.174315342567   0.175466352092   
      0.176559307515   0.177583988021   0.17853057238   0.179389797033   0.180153106156   
      0.180812790048   0.181362108916   0.181795399858   0.18210816557   0.182297143848   
      0.182360357414   0.182297143848   0.18210816557   0.181795399858   0.181362108916   
      0.180812790048   0.180153106156   0.179389797033   0.17853057238   0.177583988021   
      0.176559307515   0.175466352092   0.174315342567   0.173116737469   0.171881072063   
      0.170618803045   0.169340163544   0.168055032599   0.166772822532   0.165502386686   
      0.164251948954   0.1630290554   0.16184054727   0.160692553802   0.159590502544   
      0.158539144447   0.157542590733   0.15660435852   0.155727422318   0.15491426877   
      0.154166952359   0.153487150189   0.152876214335   0.15233522064   0.15186501314   
      0.151466243601   0.15113940585   0.150884864763   0.150702879862   0.150593623567   
      0.153119141542   0.153156852154   0.153269949366   0.153458326604   0.153721797211   
      0.15406008084   0.154472784328   0.154959376971   0.155519160219   0.15615123182   
      0.156854444622   0.157627360384   0.158468199199   0.159374785415   0.1603444913   
      0.161374180073   0.162460150316   0.163598084205   0.164783002303   0.166009227927   
      0.167270364205   0.168559286828   0.169868155256   0.171188444534   0.172510999158   
      0.173826109464   0.175123609896   0.176392997424   0.177623567257   0.178804562104   
      0.179925330531   0.18097548959   0.181945086831   0.182824757077   0.183605869864   
      0.18428066415   0.184842367723   0.185285299507   0.185604953705   0.185798065271   
      0.185862656562   0.185798065271   0.185604953705   0.185285299507   0.184842367723   
      0.18428066415   0.183605869864   0.182824757077   0.181945086831   0.18097548959   
      0.179925330531   0.178804562104   0.177623567257   0.176392997424   0.175123609896   
      0.173826109464   0.172510999158   0.171188444534   0.169868155256   0.168559286828   
      0.167270364205   0.166009227927   0.164783002303   0.163598084205   0.162460150316   
      0.161374180073   0.1603444913   0.159374785415   0.158468199199   0.157627360384   
      0.156854444622   0.15615123182   0.155519160219   0.154959376971   0.154472784328   
      0.15406008084   0.153721797211   0.153458326604   0.153269949366   0.153156852154   
      0.153119141542   0.153156852154   0.153269949366   0.153458326604   0.153721797211   
      0.15406008084   0.154472784328   0.154959376971   0.155519160219   0.15615123182   
      0.156854444622   0.157627360384   0.158468199199   0.159374785415   0.1603444913   
      0.161374180073   0.162460150316   0.163598084205   0.164783002303   0.166009227927   
      0.167270364205   0.168559286828   0.169868155256   0.171188444534   0.172510999158   
      0.173826109464   0.175123609896   0.176392997424   0.177623567257   0.178804562104   
      0.179925330531   0.18097548959   0.181945086831   0.182824757077   0.183605869864   
      0.18428066415   0.184842367723   0.185285299507   0.185604953705   0.185798065271   
      0.185862656562   0.185798065271   0.185604953705   0.185285299507   0.184842367723   
      0.18428066415   0.183605869864   0.182824757077   0.181945086831   0.18097548959   
      0.179925330531   0.178804562104   0.177623567257   0.176392997424   0.175123609896   
      0.173826109464   0.172510999158   0.171188444534   0.169868155256   0.168559286828   
      0.167270364205   0.166009227927   0.164783002303   0.163598084205   0.162460150316   
      0.161374180073   0.1603444913   0.159374785415   0.158468199199   0.157627360384   
      0.156854444622   0.15615123182   0.155519160219   0.154959376971   0.154472784328   
      0.15406008084   0.153721797211   0.153458326604   0.153269949366   0.153156852154   
      0.150557194167   0.150593623567   0.150702879862   0.150884864763   0.15113940585   
      0.151466243601   0.15186501314   0.15233522064   0.152876214335   0.153487150189   
      0.154166952359   0.15491426877   0.155727422318   0.15660435852   0.157542590733   
      0.158539144447   0.159590502544   0.160692553802   0.16184054727   0.1630290554   
      0.164251948954   0.165502386686   0.166772822532   0.168055032599   0.169340163544   
      0.170618803045   0.171881072063   0.173116737469   0.174315342567   0.175466352092   
      0.176559307515   0.177583988021   0.17853057238   0.179389797033   0.180153106156   
      0.180812790048   0.181362108916   0.181795399858   0.18210816557   0.182297143848   
      0.182360357414   0.182297143848   0.18210816557   0.181795399858   0.181362108916   
      0.180812790048   0.180153106156   0.179389797033   0.17853057238   0.177583988021   
      0.176559307515   0.175466352092   0.174315342567   0.173116737469   0.171881072063   
      0.170618803045   0.169340163544   0.168055032599   0.166772822532   0.165502386686   
      0.164251948954   0.1630290554   0.16184054727   0.160692553802   0.159590502544   
      0.158539144447   0.157542590733   0.15660435852   0.155727422318   0.15491426877   
      0.154166952359   0.153487150189   0.152876214335   0.15233522064   0.15186501314   
      0.151466243601   0.15113940585   0.150884864763   0.150702879862   0.150593623567   
      0.145471609054   0.145505455461   0.145606967532   0.145776061484   0.14601258989   
      0.146316329943   0.146686966898   0.147124072643   0.147627079302   0.148195247892   
      0.14882763209   0.149523037344   0.150279975738   0.151096617245   0.151970738334   
      0.152899669187   0.153880241189   0.15490873669   0.155980843398   0.15709161606   
      0.158235448234   0.159406057052   0.160596483674   0.161799111853   0.163005706437   
      0.164207472929   0.165395138282   0.166559052146   0.167689306734   0.168775872531   
      0.169808746221   0.170778106667   0.171674474346   0.172488869651   0.173212965586   
      0.173839230834   0.174361059674   0.174772885904   0.175070278525   0.175250017567   
      0.175310148935   0.175250017567   0.175070278525   0.174772885904   0.174361059674   
      0.173839230834   0.173212965586   0.172488869651   0.171674474346   0.170778106667   
      0.169808746221   0.168775872531   0.167689306734   0.166559052146   0.165395138282   
      0.164207472929   0.163005706437   0.161799111853   0.160596483674   0.159406057052   
      0.158235448234   0.15709161606   0.155980843398   0.15490873669   0.153880241189   
      0.152899669187   0.151970738334   0.151096617245   0.150279975738   0.149523037344   
      0.14882763209   0.148195247892   0.147627079302   0.147124072643   0.146686966898   
      0.146316329943   0.14601258989   0.145776061484   0.145606967532   0.145505455461   
      0.138007458323   0.138037436704   0.138127350332   0.138277132677   0.138486666214   
      0.138755772388   0.139084197457   0.139471594105   0.139917498745   0.140421304457   
      0.140982229574   0.141599282039   0.142271219797   0.142996507699   0.143773271614   
      0.144599250765   0.145471749581   0.146387590737   0.147343071358   0.14833392465   
      0.149355289474   0.150401690474   0.151467031359   0.152544603748   0.153627113608   
      0.154706726779   0.15577513432   0.156823637604   0.15784325212   0.158824828051   
      0.159759184817   0.160637256038   0.161450240859   0.162189757226   0.162847992645   
      0.163417848063   0.163893070841   0.164268373249   0.16453953342   0.164703476342   
      0.164758332994   0.164703476342   0.16453953342   0.164268373249   0.163893070841   
      0.163417848063   0.162847992645   0.162189757226   0.161450240859   0.160637256038   
      0.159759184817   0.158824828051   0.15784325212   0.156823637604   0.15577513432   
      0.154706726779   0.153627113608   0.152544603748   0.151467031359   0.150401690474   
      0.149355289474   0.14833392465   0.147343071358   0.146387590737   0.145471749581   
      0.144599250765   0.143773271614   0.142996507699   0.142271219797   0.141599282039   
      0.140982229574   0.140421304457   0.139917498745   0.139471594105   0.139084197457   
      0.138755772388   0.138486666214   0.138277132677   0.138127350332   0.138037436704   
      0.128520353824   0.128545345187   0.128620303074   0.128745177307   0.128919878959   
      0.129144272354   0.129418163747   0.129741286602   0.130113283356   0.130533683592   
      0.1310018786   0.13151709234   0.132078348979   0.132684437273   0.133333872301   
      0.134024855235   0.134755232127   0.13552245296   0.136323532498   0.137155014745   
      0.138012943078   0.138892838254   0.139789686593   0.140697940563   0.141611533796   
      0.142523912198   0.143428082305   0.144316677372   0.145182040928   0.146016326702   
      0.146811613003   0.147560028867   0.148253888627   0.148885831026   0.149448958724   
      0.149936973853   0.150344305417   0.150666224524   0.150898943885   0.151039698503   
      0.151086805101   0.151039698503   0.150898943885   0.150666224524   0.150344305417   
      0.149936973853   0.149448958724   0.148885831026   0.148253888627   0.147560028867   
      0.146811613003   0.146016326702   0.145182040928   0.144316677372   0.143428082305   
      0.142523912198   0.141611533796   0.140697940563   0.139789686593   0.138892838254   
      0.138012943078   0.137155014745   0.136323532498   0.13552245296   0.134755232127   
      0.134024855235   0.133333872301   0.132684437273   0.132078348979   0.13151709234   
      0.1310018786   0.130533683592   0.130113283356   0.129741286602   0.129418163747   