<?xml version="1.0"?>
<VTKFile type="ImageData" version="0.1" byte_order="LittleEndian">
  <ImageData WholeExtent="0 79 0 19 0 19" Origin="0 0 0" Spacing="1 1 1">
  <Piece Extent="0 79 0 19 0 19">
    <PointData Scalars="density">
       <DataArray type="Float32" Name="reddensity" NumberOfComponents="1" format="ascii">
      0   0   0   0   0   
      0   0   0   0   0   
      0   0   0   0   0   
      0   0   0   0   0   
      0   0   0   0   0   
      0   0   0   0   0   
      0   0   0   0   0   
      0   0   0   0   0   
      0   0   0   0   0   
      0   0   0   0   0   
      0   0   0   0   0   
      0   0   0   0   0   
      0   0   0   0   0   
      0   0   0   0   0   
      0   0   0   0   0   
      0   0   0   0   0   
      0   0   0   0   0   
      0   0   0   0   0   
      0   0   0   0   0   
      0   0   0   0   0   
      0   0   0   0   0   
      0   0   0   0   0   
      0   0   0   0   0   
      0   0   0   0   0   
      0   0   0   0   0   
      0   0   0   0   0   
      0   0   0   0   0   
      0   0   0   0   0   
      0   0   0   0   0   
      0   0   0   0   0   
      0   0   0   0   0   
      0   0   0   0   0   
      0   0   0   0   0   
      0   0   0   0   0   
      0   0   0   0   0   
      0   0   0   0   0   
      0   0   0   0   0   
      0   0   0   0   0   
      0   0   0   0   0   
      0   0   0   0   0   
      0   0   0   0   0   
      0   0   0   0   0   
      0   0   0   0   0   
      0   0   0   0   0   
      0   0   0   0   0   
      0   0   0   0   0   
      0   0   0   0   0   
      0   0   0   0   0   
      0   0   0   0   0   
      0   0   0   0   0   
      0   0   0   0   0   
      0   0   0   0   0   
      0   0   0   0   0   
      0   0   0   0   0   
      0   0   0   0   0   
      0   0   0   0   0   
      0   0   0   0   0   
      0   0   0   0   0   
      0   0   0   0   0   
      0   0   0   0   0   
      0   0   0   0   0   
      0   0   0   0   0   
      0   0   0   0   0   
      0   0   0   0   0   
      0   0   0   0   0   
      0   0   0   0   0   
      0   0   0   0   0   
      0   0   0   0   0   
      0   0   0   0   0   
      0   0   0   0   0   
      0   0   0   0   0   
      0   0   0   0   0   
      0   0   0   0   0   
      0   0   0   0   0   
      0   0   0   0   0   
      0   0   0   0   0   
      0   0   0   0   0   
      0   0   0   0   0   
      0   0   0   0   0   
      0   0   0   0   0   
      0   0   0   0   0   
      0   0   0   0   0   
      0   0   0   0   0   
      0   0   0   0   0   
      0   0   0   0   0   
      0   0   0   0   0   
      0   0   0   0   0   
      0   0   0   0   0   
      0   0   0   0   0   
      0   0   0   0   0   
      0   0   0   0   0   
      0   0   0   0   0   
      0   0   0   0   0   
      0   0   0   0   0   
      0   0   0   0   0   
      0   0   0   0   0   
      0   0   0   0   0   
      0   0   0   0   0   
      0   0   0   0   0   
      0   0   0   0   0   
      0   0   0   0   0   
      0   0   0   0   0   
      0   0   0   0   0   
      0   0   0   0   0   
      0   0   0   0   0   
      0   0   0   0   0   
      0   0   0   0   0   
      0   0   0   0   0   
      0   0   0   0   0   
      0   0   0   0   0   
      0   0   0   0   0   
      0   0   0   0   0   
      0   0   0   0   0   
      0   0   0   0   0   
      0   0   0   0   0   
      0   0   0   0   0   
      0   0   0   0   0   
      0   0   0   0   0   
      0   0   0   0   0   
      0   0   0   0   0   
      0   0   0   0   0   
      0   0   0   0   0   
      0   0   0   0   0   
      0   0   0   0   0   
      0   0   0   0   0   
      0   0   0   0   0   
      0   0   0   0   0   
      0   0   0   0   0   
      0   0   0   0   0   
      0   0   0   0   0   
      0   0   0   0   0   
      0   0   0   0   0   
      0   0   0   0   0   
      0   0   0   0   0   
      0   0   0   0   0   
      0   0   0   0   0   
      0   0   0   0   0   
      0   0   0   0   0   
      0   0   0   0   0   
      0   0   0   0   0   
      0   0   0   0   0   
      0   0   0   0   0   
      0   0   0   0   0   
      0   0   0   0   0   
      0   0   0   0   0   
      0   0   0   0   0   
      0   0   0   0   0   
      0   0   0   0   0   
      0   0   0   0   0   
      0   0   0   0   0   
      0   0   0   0   0   
      0   0   0   0   0   
      0   0   0   0   0   
      0   0   0   0   0   
      0   0   0   0   0   
      0   0   0   0   0   
      0   0   0   0   0   
      0   0   0   0   0   
      0   0   0   0   0   
      0   0   0   0   0   
      0   0   0   0   0   
      0   0   0   0   0   
      0   0   0   0   0   
      0   0   0   0   0   
      0   0   0   0   0   
      0   0   0   0   0   
      0   0   0   0   0   
      0   0   0   0   0   
      0   0   0   0   0   
      0   0   0   0   0   
      0   0   0   0   0   
      0   0   0   0   0   
      0   0   0   0   0   
      0   0   0   0   0   
      0   0   0   0   0   
      0   0   0   0   0   
      0   0   0   0   0   
      0   0   0   0   0   
      0   0   0   0   0   
      0   0   0   0   0   
      0   0   0   0   0   
      0   0   0   0   0   
      0   0   0   0   0   
      0   0   0   0   0   
      0   0   0   0   0   
      0   0   0   0   0   
      0   0   0   0   0   
      0   0   0   0   0   
      0   0   0   0   0   
      0   0   0   0   0   
      0   0   0   0   0   
      0   0   0   0   0   
      0   0   0   0   0   
      0   0   0   0   0   
      0   0   0   0   0   
      0   0   0   0   0   
      0   0   0   0   0   
      0   0   0   0   0   
      0   0   0   0   0   
      0   0   0   0   0   
      0   0   0   0   0   
      0   0   0   0   0   
      0   0   0   0   0   
      0   0   0   0   0   
      0   0   0   0   0   
      0   0   0   0   0   
      0   0   0   0   0   
      0   0   0   0   0   
      0   0   0   0   0   
      0   0   0   0   0   
      0   0   0   0   0   
      0   0   0   0   0   
      0   0   0   0   0   
      0   0   0   0   0   
      0   0   0   0   0   
      0   0   0   0   0   
      0   0   0   0   0   
      0   0   0   0   0   
      0   0   0   0   0   
      0   0   0   0   0   
      0   0   0   0   0   
      0   0   0   0   0   
      0   0   0   0   0   
      0   0   0   0   0   
      0   0   0   0   0   
      0   0   0   0   0   
      0   0   0   0   0   
      0   0   0   0   0   
      0   0   0   0   0   
      0   0   0   0   0   
      0   0   0   0   0   
      0   0   0   0   0   
      0   0   0   0   0   
      0   0   0   0   0   
      0   0   0   0   0   
      0   0   0   0   0   
      0   0   0   0   0   
      0   0   0   0   0   
      0   0   0   0   0   
      0   0   0   0   0   
      0   0   0   0   0   
      0   0   0   0   0   
      0   0   0   0   0   
      0   0   0   0   0   
      0   0   0   0   0   
      0   0   0   0   0   
      0   0   0   0   0   
      0   0   0   0   0   
      0   0   0   0   0   
      0   0   0   0   0   
      0   0   0   0   0   
      0   0   0   0   0   
      0   0   0   0   0   
      0   0   0   0   0   
      0   0   0   0   0   
      0   0   0   0   0   
      0   0   0   0   0   
      0   0   0   0   0   
      0   0   0   0   0   
      0   0   0   0   0   
      0   0   0   0   0   
      0   0   0   0   0   
      0   0   0   0   0   
      0   0   0   0   0   
      0   0   0   0   0   
      0   0   0   0   0   
      0   0   0   0   0   
      0   0   0   0   0   
      0   0   0   0   0   
      0   0   0   0   0   
      0   0   0   0   0   
      0   0   0   0   0   
      0   0   0   0   0   
      0   0   0   0   0   
      0   0   0   0   0   
      0   0   0   0   0   
      0   0   0   0   0   
      0   0   0   0   0   
      0   0   0   0   0   
      0   0   0   0   0   
      0   0   0   0   0   
      0   0   0   0   0   
      0   0   0   0   0   
      0   0   0   0   0   
      0   0   0   0   0   
      0   0   0   0   0   
      0   0   0   0   0   
      0   0   0   0   0   
      0   0   0   0   0   
      0   0   0   0   0   
      0   0   0   0   0   
      0   0   0   0   0   
      0   0   0   0   0   
      0   0   0   0   0   
      0   0   0   0   0   
      0   0   0   0   0   
      0   0   0   0   0   
      0   0   0   0   0   
      0   0   0   0   0   
      0   0   0   0   0   
      0   0   0   0   0   
      0   0   0   0   0   
      0   0   0   0   0   
      0   0   0   0   0   
      0   0   0   0   0   
      0   0   0   0   0   
      0   0   0   0   0   
      0   0   0   0   0   
      0   0   0   0   0   
      0   0   0   0   0   
      0   0   0   0   0   
      0   0   0   0   0   
      0   0   0   0   0   
      0   0   0   0   0   
      0   0   0   0   0   
      0   0   0   0   0   
      0   0   0   0   0   
      0   0   0   0   0   
      0   0   0   0   0   
      0   0   0   0   0   
      0   0   0   0   0   
      0   0   0   0   0   
      0   0   0   0   0   
      0   0   0   0   0   
      0   0   0   0   0   
      0   0   0   0   0   
      0   0   0   0   0   
      0   0   0   0   0   
      0   0   0   0   0   
      0   0   0   0   0   
      0   0   0   0   0   
      0   0   0   0   0   
      0   0   0   0   0   
      0   0   0   0   0   
      0   0   0   0   0   
      0   0   0   0   0   
      0.0810249079339   0.0810348953983   0.0810648840068   0.0811149524137   0.0811852317071   
      0.0812759053007   0.0813872085648   0.0815194279603   0.0816728993443   0.0818480050061   
      0.0820451688653   0.0822648491193   0.0825075274844   0.0827736940308   0.0830638265054   
      0.0833783629817   0.0837176667181   0.0840819822777   0.0844713823132   0.0848857049672   
      0.0853244826134   0.0857868636441   0.0862715301558   0.0867766156088   0.0872996277163   
      0.0878373827982   0.0883859584505   0.0889406714734   0.0894960874586   0.0900460672036   
      0.0905838532158   0.0911021971186   0.0915935259456   0.0920501423638   0.0924644510661   
      0.0928292011845   0.0931377328235   0.0933842148618   0.0935638611156   0.0936731128058   
      0.0937097769618   0.0936731128058   0.0935638611156   0.0933842148618   0.0931377328235   
      0.0928292011845   0.0924644510661   0.0920501423638   0.0915935259456   0.0911021971186   
      0.0905838532158   0.0900460672036   0.0894960874586   0.0889406714734   0.0883859584505   
      0.0878373827982   0.0872996277163   0.0867766156088   0.0862715301558   0.0857868636441   
      0.0853244826134   0.0848857049672   0.0844713823132   0.0840819822777   0.0837176667181   
      0.0833783629817   0.0830638265054   0.0827736940308   0.0825075274844   0.0822648491193   
      0.0820451688653   0.0818480050061   0.0816728993443   0.0815194279603   0.0813872085648   
      0.0812759053007   0.0811852317071   0.0811149524137   0.0810648840068   0.0810348953983   
      0.0884203582066   0.0884344403863   0.0884767290784   0.0885473507324   0.0886465160238   
      0.0887745195818   0.0889317392766   0.0891186347039   0.089335744367   0.0895836808886   
      0.0898631233993   0.0901748060384   0.0905195012927   0.090897996695   0.0913110632536   
      0.0917594139186   0.0922436504689   0.0927641974851   0.0933212226149   0.0939145431885   
      0.0945435204196   0.0952069439159   0.0959029109384   0.0966287066658   0.0973806934224   
      0.0981542181896   0.0989435484793   0.0997418465731   0.100541191072   0.101332652612   
      0.102106427559   0.10285202976   0.103558536258   0.104214878775   0.104810169022   
      0.105334042952   0.105777007141   0.106130769707   0.106388538609   0.106545271692   
      0.106597865323   0.106545271692   0.106388538609   0.106130769707   0.105777007141   
      0.105334042952   0.104810169022   0.104214878775   0.103558536258   0.10285202976   
      0.102106427559   0.101332652612   0.100541191072   0.0997418465731   0.0989435484793   
      0.0981542181896   0.0973806934224   0.0966287066658   0.0959029109384   0.0952069439159   
      0.0945435204196   0.0939145431885   0.0933212226149   0.0927641974851   0.0922436504689   
      0.0917594139186   0.0913110632536   0.090897996695   0.0905195012927   0.0901748060384   
      0.0898631233993   0.0895836808886   0.089335744367   0.0891186347039   0.0889317392766   
      0.0887745195818   0.0886465160238   0.0885473507324   0.0884767290784   0.0884344403863   
      0.100654357486   0.10067696617   0.100744868859   0.100858295395   0.101017628557   
      0.101223403318   0.101476305218   0.101777167184   0.102126963911   0.102526802613   
      0.102977908643   0.103481604117   0.104039277333   0.104652340449   0.105322172672   
      0.106050046148   0.106837031975   0.107683884337   0.108590901856   0.109557766842   
      0.110583365312   0.111665593345   0.1128011583   0.113985386471   0.115212051403   
      0.1164732389   0.117759265323   0.119058664667   0.120358257076   0.12164330688   
      0.122897772383   0.124104643049   0.125246353118   0.126305254896   0.127264130417   
      0.128106717487   0.128818225201   0.1293858149   0.129799024797   0.130050119769   
      0.13013435168   0.130050119769   0.129799024797   0.1293858149   0.128818225201   
      0.128106717487   0.127264130417   0.126305254896   0.125246353118   0.124104643049   
      0.122897772383   0.12164330688   0.120358257076   0.119058664667   0.117759265323   
      0.1164732389   0.115212051403   0.113985386471   0.1128011583   0.111665593345   
      0.110583365312   0.109557766842   0.108590901856   0.107683884337   0.106837031975   
      0.106050046148   0.105322172672   0.104652340449   0.104039277333   0.103481604117   
      0.102977908643   0.102526802613   0.102126963911   0.101777167184   0.101476305218   
      0.101223403318   0.101017628557   0.100858295395   0.100744868859   0.10067696617   
      0.110171547569   0.110203343743   0.110298847526   0.11045840449   0.110682589747   
      0.110972206223   0.111328281278   0.111752060631   0.112244998183   0.112808739884   
      0.113445099294   0.114156021996   0.11494353551   0.115809680958   0.116756422495   
      0.117785530631   0.118898436104   0.12009605217   0.121378565147   0.122745195813   
      0.124193937921   0.125721284291   0.127321955402   0.128988649495   0.130711836258   
      0.132479617341   0.134277675778   0.136089332427   0.13789572098   0.139676084516   
      0.141408186981   0.143068823752   0.144634407662   0.146081601699   0.147387967424   
      0.148532598922   0.149496715413   0.150264190436   0.150822000991   0.151160585215   
      0.151274101511   0.151160585215   0.150822000991   0.150264190436   0.149496715413   
      0.148532598922   0.147387967424   0.146081601699   0.144634407662   0.143068823752   
      0.141408186981   0.139676084516   0.13789572098   0.136089332427   0.134277675778   
      0.132479617341   0.130711836258   0.128988649495   0.127321955402   0.125721284291   
      0.124193937921   0.122745195813   0.121378565147   0.12009605217   0.118898436104   
      0.117785530631   0.116756422495   0.115809680958   0.11494353551   0.114156021996   
      0.113445099294   0.112808739884   0.112244998183   0.111752060631   0.111328281278   
      0.110972206223   0.110682589747   0.11045840449   0.110298847526   0.110203343743   
      0.11889310047   0.118934169978   0.119057532653   0.11926365045   0.119553291486   
      0.119927526623   0.120387723275   0.120935534922   0.121572884273   0.122301937416   
      0.123125065629   0.124044790856   0.125063710238   0.126184394676   0.127409256291   
      0.128740380051   0.130179316079   0.131726831222   0.133382621824   0.13514499403   
      0.137010523405   0.138973711608   0.141026663584   0.143158813326   0.145356728378   
      0.147604022202   0.149881398413   0.152166842016   0.154435960791   0.156662466615   
      0.158818773694   0.16087668049   0.162808096131   0.164585771008   0.166183994902   
      0.167579233176   0.168750680822   0.169680723619   0.170355303849   0.170764193943   
      0.170901184552   0.170764193943   0.170355303849   0.169680723619   0.168750680822   
      0.167579233176   0.166183994902   0.164585771008   0.162808096131   0.16087668049   
      0.158818773694   0.156662466615   0.154435960791   0.152166842016   0.149881398413   
      0.147604022202   0.145356728378   0.143158813326   0.141026663584   0.138973711608   
      0.137010523405   0.13514499403   0.133382621824   0.131726831222   0.130179316079   
      0.128740380051   0.127409256291   0.126184394676   0.125063710238   0.124044790856   
      0.123125065629   0.122301937416   0.121572884273   0.120935534922   0.120387723275   
      0.119927526623   0.119553291486   0.11926365045   0.119057532653   0.118934169978   
      0.12638313009   0.126432390482   0.126580359095   0.126827597348   0.127175037727   
      0.127623978018   0.128176071328   0.128833309851   0.129597999653   0.13047272295   
      0.131460283544   0.132563630294   0.133785752837   0.135129543439   0.136597619023   
      0.138192098404   0.139914331832   0.141764583352   0.143741671396   0.145842579306   
      0.148062054737   0.150392224337   0.1528222564   0.15533810801   0.157922392971   
      0.160554401507   0.163210292158   0.165863461208   0.168485077523   0.171044753505   
      0.173511309082   0.175853577626   0.17804120177   0.180045373027   0.181839480393   
      0.183399647312   0.18470515085   0.185738729394   0.186486794049   0.186939563567   
      0.187091143049   0.186939563567   0.186486794049   0.185738729394   0.18470515085   
      0.183399647312   0.181839480393   0.180045373027   0.17804120177   0.175853577626   
      0.173511309082   0.171044753505   0.168485077523   0.165863461208   0.163210292158   
      0.160554401507   0.157922392971   0.15533810801   0.1528222564   0.150392224337   
      0.148062054737   0.145842579306   0.143741671396   0.141764583352   0.139914331832   
      0.138192098404   0.136597619023   0.135129543439   0.133785752837   0.132563630294   
      0.131460283544   0.13047272295   0.129597999653   0.12883330985   0.128176071328   
      0.127623978018   0.127175037727   0.126827597348   0.126580359095   0.126432390482   
      0.132276048525   0.132331748839   0.132499062378   0.132778625578   0.133171494339   
      0.133679135628   0.134303413309   0.135046565731   0.135911171669   0.136900100346   
      0.138016440302   0.13926340103   0.140644180659   0.142161792818   0.143818846352   
      0.145617273226   0.147558003021   0.149640587155   0.15186278248   0.154220111881   
      0.156705428218   0.159308516239   0.16201577314   0.164810010458   0.167670416325   
      0.170572706814   0.173489478732   0.176390755583   0.179244696778   0.182018421475   
      0.184678886143   0.18719375149   0.189532180163   0.191665520046   0.193567846193   
      0.195216353825   0.196591612171   0.197677701957   0.198462266905   0.198936511752   
      0.199095176659   0.198936511752   0.198462266905   0.197677701957   0.196591612171   
      0.195216353825   0.193567846193   0.191665520046   0.189532180163   0.18719375149   
      0.184678886143   0.182018421475   0.179244696778   0.176390755583   0.173489478732   
      0.170572706814   0.167670416325   0.164810010458   0.16201577314   0.159308516239   
      0.156705428218   0.154220111881   0.15186278248   0.149640587155   0.147558003021   
      0.145617273226   0.143818846352   0.142161792818   0.140644180659   0.13926340103   
      0.138016440302   0.136900100346   0.135911171669   0.135046565731   0.134303413309   
      0.133679135628   0.133171494339   0.132778625578   0.132499062378   0.132331748839   
      0.136299023911   0.136359083779   0.136539492361   0.136840934829   0.137264546886   
      0.137811904036   0.138485003804   0.139286238021   0.140218351323   0.141284380986   
      0.142487572237   0.143831262266   0.145318725635   0.146952973803   0.148736502407   
      0.150670982223   0.152756893636   0.154993110314   0.157376445511   0.159901183648   
      0.16255862946   0.165336715521   0.168219714252   0.171188100509   0.174218603798   
      0.17728447465   0.180355968685   0.183401027424   0.186386111085   0.189277120011   
      0.192040331872   0.194643283029   0.197055534126   0.199249279167   0.201199780176   
      0.20288563172   0.204288877769   0.205395015498   0.206192926279   0.206674773734   
      0.206835903825   0.206674773734   0.206192926279   0.205395015498   0.204288877769   
      0.20288563172   0.201199780176   0.199249279167   0.197055534126   0.194643283029   
      0.192040331872   0.189277120011   0.186386111085   0.183401027424   0.180355968685   
      0.17728447465   0.174218603798   0.171188100509   0.168219714252   0.165336715521   
      0.16255862946   0.159901183648   0.157376445511   0.154993110314   0.152756893636   
      0.150670982223   0.148736502407   0.146952973803   0.145318725635   0.143831262266   
      0.142487572237   0.141284380986   0.140218351323   0.139286238021   0.138485003804   
      0.137811904036   0.137264546886   0.136840934829   0.136539492361   0.136359083779   
      0.13832922942   0.138391473776   0.138578443799   0.138890848352   0.139329861778   
      0.139897111812   0.140594659687   0.141424969365   0.142390861762   0.143495448807   
      0.144742041107   0.146134022131   0.147674681313   0.149366998627   0.15121337437   
      0.153215300499   0.155372974289   0.157684861561   0.16014722512   0.162753643909   
      0.165494558425   0.168356886443   0.171323757797   0.174374415597   0.177484322231   
      0.180625491518   0.183767044974   0.186875963809   0.189917983639   0.192858560953   
      0.195663832756   0.198301495069   0.200741540883   0.202956820419   0.204923411497   
      0.20662081111   0.208031977393   0.209143262528   0.209944281327   0.210427758586   
      0.210589392021   0.210427758586   0.209944281327   0.209143262528   0.208031977393   
      0.20662081111   0.204923411497   0.202956820419   0.200741540883   0.198301495069   
      0.195663832756   0.192858560953   0.189917983639   0.186875963809   0.183767044974   
      0.180625491518   0.177484322231   0.174374415597   0.171323757797   0.168356886443   
      0.165494558425   0.162753643909   0.16014722512   0.157684861561   0.155372974289   
      0.153215300499   0.15121337437   0.149366998627   0.147674681313   0.146134022131   
      0.144742041107   0.143495448807   0.142390861762   0.141424969365   0.140594659687   
      0.139897111812   0.139329861778   0.138890848352   0.138578443799   0.138391473776   
      0.13832922942   0.138391473776   0.138578443799   0.138890848352   0.139329861778   
      0.139897111812   0.140594659687   0.141424969365   0.142390861762   0.143495448807   
      0.144742041107   0.146134022131   0.147674681313   0.149366998627   0.15121337437   
      0.153215300499   0.155372974289   0.157684861561   0.16014722512   0.162753643909   
      0.165494558425   0.168356886443   0.171323757797   0.174374415597   0.177484322231   
      0.180625491518   0.183767044974   0.186875963809   0.189917983639   0.192858560953   
      0.195663832756   0.198301495069   0.200741540883   0.202956820419   0.204923411497   
      0.20662081111   0.208031977393   0.209143262528   0.209944281327   0.210427758586   
      0.210589392021   0.210427758586   0.209944281327   0.209143262528   0.208031977393   
      0.20662081111   0.204923411497   0.202956820419   0.200741540883   0.198301495069   
      0.195663832756   0.192858560953   0.189917983639   0.186875963809   0.183767044974   
      0.180625491518   0.177484322231   0.174374415597   0.171323757797   0.168356886443   
      0.165494558425   0.162753643909   0.16014722512   0.157684861561   0.155372974289   
      0.153215300499   0.15121337437   0.149366998627   0.147674681313   0.146134022131   
      0.144742041107   0.143495448807   0.142390861762   0.141424969365   0.140594659687   
      0.139897111812   0.139329861778   0.138890848352   0.138578443799   0.138391473776   
      0.136299023911   0.136359083779   0.136539492361   0.136840934829   0.137264546886   
      0.137811904036   0.138485003804   0.139286238021   0.140218351323   0.141284380986   
      0.142487572237   0.143831262266   0.145318725635   0.146952973803   0.148736502407   
      0.150670982223   0.152756893636   0.154993110314   0.157376445511   0.159901183648   
      0.16255862946   0.165336715521   0.168219714252   0.171188100509   0.174218603798   
      0.17728447465   0.180355968685   0.183401027424   0.186386111085   0.189277120011   
      0.192040331872   0.194643283029   0.197055534126   0.199249279167   0.201199780176   
      0.20288563172   0.204288877769   0.205395015498   0.206192926279   0.206674773734   
      0.206835903825   0.206674773734   0.206192926279   0.205395015498   0.204288877769   
      0.20288563172   0.201199780176   0.199249279167   0.197055534126   0.194643283029   
      0.192040331872   0.189277120011   0.186386111085   0.183401027424   0.180355968685   
      0.17728447465   0.174218603798   0.171188100509   0.168219714252   0.165336715521   
      0.16255862946   0.159901183648   0.157376445511   0.154993110314   0.152756893636   
      0.150670982223   0.148736502407   0.146952973803   0.145318725635   0.143831262266   
      0.142487572237   0.141284380986   0.140218351323   0.139286238021   0.138485003804   
      0.137811904036   0.137264546886   0.136840934829   0.136539492361   0.136359083779   
      0.132276048525   0.132331748839   0.132499062378   0.132778625578   0.133171494339   
      0.133679135628   0.134303413309   0.135046565731   0.135911171669   0.136900100346   
      0.138016440302   0.13926340103   0.140644180659   0.142161792818   0.143818846352   
      0.145617273226   0.147558003021   0.149640587155   0.15186278248   0.154220111881   
      0.156705428218   0.159308516239   0.16201577314   0.164810010458   0.167670416325   
      0.170572706814   0.173489478732   0.176390755583   0.179244696778   0.182018421475   
      0.184678886143   0.18719375149   0.189532180163   0.191665520046   0.193567846193   
      0.195216353825   0.196591612171   0.197677701957   0.198462266905   0.198936511752   
      0.199095176659   0.198936511752   0.198462266905   0.197677701957   0.196591612171   
      0.195216353825   0.193567846193   0.191665520046   0.189532180163   0.18719375149   
      0.184678886143   0.182018421475   0.179244696778   0.176390755583   0.173489478732   
      0.170572706814   0.167670416325   0.164810010458   0.16201577314   0.159308516239   
      0.156705428218   0.154220111881   0.15186278248   0.149640587155   0.147558003021   
      0.145617273226   0.143818846352   0.142161792818   0.140644180659   0.13926340103   
      0.138016440302   0.136900100346   0.135911171669   0.135046565731   0.134303413309   
      0.133679135628   0.133171494339   0.132778625578   0.132499062378   0.132331748839   
      0.12638313009   0.126432390482   0.126580359095   0.126827597348   0.127175037727   
      0.127623978018   0.128176071328   0.128833309851   0.129597999653   0.13047272295   
      0.131460283544   0.132563630294   0.133785752837   0.135129543439   0.136597619023   
      0.138192098404   0.139914331832   0.141764583352   0.143741671396   0.145842579306   
      0.148062054737   0.150392224337   0.1528222564   0.15533810801   0.157922392971   
      0.160554401507   0.163210292158   0.165863461208   0.168485077523   0.171044753505   
      0.173511309082   0.175853577626   0.17804120177   0.180045373027   0.181839480393   
      0.183399647312   0.18470515085   0.185738729394   0.186486794049   0.186939563567   
      0.187091143049   0.186939563567   0.186486794049   0.185738729394   0.18470515085   
      0.183399647312   0.181839480393   0.180045373027   0.17804120177   0.175853577626   
      0.173511309082   0.171044753505   0.168485077523   0.165863461208   0.163210292158   
      0.160554401507   0.157922392971   0.15533810801   0.1528222564   0.150392224337   
      0.148062054737   0.145842579306   0.143741671396   0.141764583352   0.139914331832   
      0.138192098404   0.136597619023   0.135129543439   0.133785752837   0.132563630294   
      0.131460283544   0.13047272295   0.129597999653   0.128833309851   0.128176071328   
      0.127623978018   0.127175037727   0.126827597348   0.126580359095   0.126432390482   
      0.11889310047   0.118934169978   0.119057532653   0.11926365045   0.119553291486   
      0.119927526623   0.120387723275   0.120935534922   0.121572884273   0.122301937416   
      0.123125065629   0.124044790856   0.125063710238   0.126184394676   0.127409256291   
      0.128740380051   0.130179316079   0.131726831222   0.133382621824   0.13514499403   
      0.137010523405   0.138973711608   0.141026663584   0.143158813326   0.145356728378   
      0.147604022202   0.149881398413   0.152166842016   0.154435960791   0.156662466615   
      0.158818773694   0.16087668049   0.162808096131   0.164585771008   0.166183994902   
      0.167579233176   0.168750680822   0.169680723619   0.170355303849   0.170764193943   
      0.170901184552   0.170764193943   0.170355303849   0.169680723619   0.168750680822   
      0.167579233176   0.166183994902   0.164585771008   0.162808096131   0.16087668049   
      0.158818773694   0.156662466615   0.154435960791   0.152166842016   0.149881398413   
      0.147604022202   0.145356728378   0.143158813326   0.141026663584   0.138973711608   
      0.137010523405   0.13514499403   0.133382621824   0.131726831222   0.130179316079   
      0.128740380051   0.127409256291   0.126184394676   0.125063710238   0.124044790856   
      0.123125065629   0.122301937416   0.121572884273   0.120935534922   0.120387723275   