<?xml version="1.0"?>
<VTKFile type="ImageData" version="0.1" byte_order="LittleEndian">
  <ImageData WholeExtent="0 79 0 19 0 19" Origin="0 0 0" Spacing="1 1 1">
  <Piece Extent="0 79 0 19 0 19">
    <PointData Scalars="density">
       <DataArray type="Float32" Name="reddensity" NumberOfComponents="1" format="ascii">
      0   0   0   0   0   
      0   0   0   0   0   
      0   0   0   0   0   
      0   0   0   0   0   
      0   0   0   0   0   
      0   0   0   0   0   
      0   0   0   0   0   
      0   0   0   0   0   
      0   0   0   0   0   
      0   0   0   0   0   
      0   0   0   0   0   
      0   0   0   0   0   
      0   0   0   0   0   
      0   0   0   0   0   
      0   0   0   0   0   
      0   0   0   0   0   
      0   0   0   0   0   
      0   0   0   0   0   
      0   0   0   0   0   
      0   0   0   0   0   
      0   0   0   0   0   
      0   0   0   0   0   
      0   0   0   0   0   
      0   0   0   0   0   
      0   0   0   0   0   
      0   0   0   0   0   
      0   0   0   0   0   
      0   0   0   0   0   
      0   0   0   0   0   
      0   0   0   0   0   
      0   0   0   0   0   
      0   0   0   0   0   
      0   0   0   0   0   
      0   0   0   0   0   
      0   0   0   0   0   
      0   0   0   0   0   
      0   0   0   0   0   
      0   0   0   0   0   
      0   0   0   0   0   
      0   0   0   0   0   
      0   0   0   0   0   
      0   0   0   0   0   
      0   0   0   0   0   
      0   0   0   0   0   
      0   0   0   0   0   
      0   0   0   0   0   
      0   0   0   0   0   
      0   0   0   0   0   
      0   0   0   0   0   
      0   0   0   0   0   
      0   0   0   0   0   
      0   0   0   0   0   
      0   0   0   0   0   
      0   0   0   0   0   
      0   0   0   0   0   
      0   0   0   0   0   
      0   0   0   0   0   
      0   0   0   0   0   
      0   0   0   0   0   
      0   0   0   0   0   
      0   0   0   0   0   
      0   0   0   0   0   
      0   0   0   0   0   
      0   0   0   0   0   
      0   0   0   0   0   
      0   0   0   0   0   
      0   0   0   0   0   
      0   0   0   0   0   
      0   0   0   0   0   
      0   0   0   0   0   
      0   0   0   0   0   
      0   0   0   0   0   
      0   0   0   0   0   
      0   0   0   0   0   
      0   0   0   0   0   
      0   0   0   0   0   
      0   0   0   0   0   
      0   0   0   0   0   
      0   0   0   0   0   
      0   0   0   0   0   
      0   0   0   0   0   
      0   0   0   0   0   
      0   0   0   0   0   
      0   0   0   0   0   
      0   0   0   0   0   
      0   0   0   0   0   
      0   0   0   0   0   
      0   0   0   0   0   
      0   0   0   0   0   
      0   0   0   0   0   
      0   0   0   0   0   
      0   0   0   0   0   
      0   0   0   0   0   
      0   0   0   0   0   
      0   0   0   0   0   
      0   0   0   0   0   
      0   0   0   0   0   
      0   0   0   0   0   
      0   0   0   0   0   
      0   0   0   0   0   
      0   0   0   0   0   
      0   0   0   0   0   
      0   0   0   0   0   
      0   0   0   0   0   
      0   0   0   0   0   
      0   0   0   0   0   
      0   0   0   0   0   
      0   0   0   0   0   
      0   0   0   0   0   
      0   0   0   0   0   
      0   0   0   0   0   
      0   0   0   0   0   
      0   0   0   0   0   
      0   0   0   0   0   
      0   0   0   0   0   
      0   0   0   0   0   
      0   0   0   0   0   
      0   0   0   0   0   
      0   0   0   0   0   
      0   0   0   0   0   
      0   0   0   0   0   
      0   0   0   0   0   
      0   0   0   0   0   
      0   0   0   0   0   
      0   0   0   0   0   
      0   0   0   0   0   
      0   0   0   0   0   
      0   0   0   0   0   
      0   0   0   0   0   
      0   0   0   0   0   
      0   0   0   0   0   
      0   0   0   0   0   
      0   0   0   0   0   
      0   0   0   0   0   
      0   0   0   0   0   
      0   0   0   0   0   
      0   0   0   0   0   
      0   0   0   0   0   
      0   0   0   0   0   
      0   0   0   0   0   
      0   0   0   0   0   
      0   0   0   0   0   
      0   0   0   0   0   
      0   0   0   0   0   
      0   0   0   0   0   
      0   0   0   0   0   
      0   0   0   0   0   
      0   0   0   0   0   
      0   0   0   0   0   
      0   0   0   0   0   
      0   0   0   0   0   
      0   0   0   0   0   
      0   0   0   0   0   
      0   0   0   0   0   
      0   0   0   0   0   
      0   0   0   0   0   
      0   0   0   0   0   
      0   0   0   0   0   
      0   0   0   0   0   
      0   0   0   0   0   
      0   0   0   0   0   
      0   0   0   0   0   
      0   0   0   0   0   
      0   0   0   0   0   
      0   0   0   0   0   
      0   0   0   0   0   
      0   0   0   0   0   
      0   0   0   0   0   
      0   0   0   0   0   
      0   0   0   0   0   
      0   0   0   0   0   
      0   0   0   0   0   
      0   0   0   0   0   
      0   0   0   0   0   
      0   0   0   0   0   
      0   0   0   0   0   
      0   0   0   0   0   
      0   0   0   0   0   
      0   0   0   0   0   
      0   0   0   0   0   
      0   0   0   0   0   
      0   0   0   0   0   
      0   0   0   0   0   
      0   0   0   0   0   
      0   0   0   0   0   
      0   0   0   0   0   
      0   0   0   0   0   
      0   0   0   0   0   
      0   0   0   0   0   
      0   0   0   0   0   
      0   0   0   0   0   
      0   0   0   0   0   
      0   0   0   0   0   
      0   0   0   0   0   
      0   0   0   0   0   
      0   0   0   0   0   
      0   0   0   0   0   
      0   0   0   0   0   
      0   0   0   0   0   
      0   0   0   0   0   
      0   0   0   0   0   
      0   0   0   0   0   
      0   0   0   0   0   
      0   0   0   0   0   
      0   0   0   0   0   
      0   0   0   0   0   
      0   0   0   0   0   
      0   0   0   0   0   
      0   0   0   0   0   
      0   0   0   0   0   
      0   0   0   0   0   
      0   0   0   0   0   
      0   0   0   0   0   
      0   0   0   0   0   
      0   0   0   0   0   
      0   0   0   0   0   
      0   0   0   0   0   
      0   0   0   0   0   
      0   0   0   0   0   
      0   0   0   0   0   
      0   0   0   0   0   
      0   0   0   0   0   
      0   0   0   0   0   
      0   0   0   0   0   
      0   0   0   0   0   
      0   0   0   0   0   
      0   0   0   0   0   
      0   0   0   0   0   
      0   0   0   0   0   
      0   0   0   0   0   
      0   0   0   0   0   
      0   0   0   0   0   
      0   0   0   0   0   
      0   0   0   0   0   
      0   0   0   0   0   
      0   0   0   0   0   
      0   0   0   0   0   
      0   0   0   0   0   
      0   0   0   0   0   
      0   0   0   0   0   
      0   0   0   0   0   
      0   0   0   0   0   
      0   0   0   0   0   
      0   0   0   0   0   
      0   0   0   0   0   
      0   0   0   0   0   
      0   0   0   0   0   
      0   0   0   0   0   
      0   0   0   0   0   
      0   0   0   0   0   
      0   0   0   0   0   
      0   0   0   0   0   
      0   0   0   0   0   
      0   0   0   0   0   
      0   0   0   0   0   
      0   0   0   0   0   
      0   0   0   0   0   
      0   0   0   0   0   
      0   0   0   0   0   
      0   0   0   0   0   
      0   0   0   0   0   
      0   0   0   0   0   
      0   0   0   0   0   
      0   0   0   0   0   
      0   0   0   0   0   
      0   0   0   0   0   
      0   0   0   0   0   
      0   0   0   0   0   
      0   0   0   0   0   
      0   0   0   0   0   
      0   0   0   0   0   
      0   0   0   0   0   
      0   0   0   0   0   
      0   0   0   0   0   
      0   0   0   0   0   
      0   0   0   0   0   
      0   0   0   0   0   
      0   0   0   0   0   
      0   0   0   0   0   
      0   0   0   0   0   
      0   0   0   0   0   
      0   0   0   0   0   
      0   0   0   0   0   
      0   0   0   0   0   
      0   0   0   0   0   
      0   0   0   0   0   
      0   0   0   0   0   
      0   0   0   0   0   
      0   0   0   0   0   
      0   0   0   0   0   
      0   0   0   0   0   
      0   0   0   0   0   
      0   0   0   0   0   
      0   0   0   0   0   
      0   0   0   0   0   
      0   0   0   0   0   
      0   0   0   0   0   
      0   0   0   0   0   
      0   0   0   0   0   
      0   0   0   0   0   
      0   0   0   0   0   
      0   0   0   0   0   
      0   0   0   0   0   
      0   0   0   0   0   
      0   0   0   0   0   
      0   0   0   0   0   
      0   0   0   0   0   
      0   0   0   0   0   
      0   0   0   0   0   
      0   0   0   0   0   
      0   0   0   0   0   
      0   0   0   0   0   
      0   0   0   0   0   
      0   0   0   0   0   
      0   0   0   0   0   
      0   0   0   0   0   
      0   0   0   0   0   
      0   0   0   0   0   
      0   0   0   0   0   
      0   0   0   0   0   
      0   0   0   0   0   
      0   0   0   0   0   
      0   0   0   0   0   
      0   0   0   0   0   
      0   0   0   0   0   
      0   0   0   0   0   
      0   0   0   0   0   
      0   0   0   0   0   
      0   0   0   0   0   
      0   0   0   0   0   
      0   0   0   0   0   
      0   0   0   0   0   
      0   0   0   0   0   
      0   0   0   0   0   
      0   0   0   0   0   
      0   0   0   0   0   
      0.0835187876301   0.0835239403581   0.0835393903348   0.0835651126889   0.0836010651331   
      0.0836471867073   0.08370339601   0.0837695889119   0.0838456357467   0.0839313779786   
      0.0840266243511   0.0841311465367   0.0842446743168   0.0843668903457   0.0844974245738   
      0.0846358484357   0.0847816689436   0.0849343228606   0.0850931711704   0.0852574940973   
      0.0854264869647   0.0855992572135   0.085774822918   0.0859521131467   0.0861299705016   
      0.0863071561418   0.0864823575412   0.0866541991564   0.0868212560779   0.0869820706223   
      0.0871351716861   0.0872790965398   0.0874124145945   0.0875337525406   0.0876418201371   
      0.0877354358409   0.0878135514094   0.0878752745948   0.0879198890813   0.0879468708901   
      0.0879559006007   0.0879468708901   0.0879198890813   0.0878752745948   0.0878135514094   
      0.0877354358409   0.0876418201371   0.0875337525406   0.0874124145945   0.0872790965398   
      0.0871351716861   0.0869820706223   0.0868212560779   0.0866541991564   0.0864823575412   
      0.0863071561418   0.0861299705016   0.0859521131467   0.085774822918   0.0855992572135   
      0.0854264869647   0.0852574940973   0.0850931711704   0.0849343228606   0.0847816689436   
      0.0846358484357   0.0844974245738   0.0843668903457   0.0842446743168   0.0841311465367   
      0.0840266243511   0.0839313779786   0.0838456357467   0.0837695889119   0.08370339601   
      0.0836471867073   0.0836010651331   0.0835651126889   0.0835393903348   0.0835239403581   
      0.0920183686628   0.0920257406293   0.0920478456202   0.0920846505339   0.0921360989457   
      0.0922021092181   0.0922825718431   0.0923773460073   0.0924862553739   0.0926090830813   
      0.0927455659685   0.0928953880546   0.0930581733221   0.0932334778832   0.0934207816435   
      0.0936194796243   0.093828873151   0.0940481611709   0.0942764320216   0.0945126560246   
      0.0947556793349   0.095004219513   0.0952568633198   0.0955120672362   0.0957681611952   
      0.096023355963   0.0962757545251   0.0965233677222   0.0967641342276   0.0969959447883   
      0.0972166704547   0.0974241943142   0.0976164460412   0.0977914383815   0.0979473045223   
      0.0980823351771   0.0981950141351   0.0982840510157   0.0983484100121   0.098387333523   
      0.0984003597454   0.098387333523   0.0983484100121   0.0982840510157   0.0981950141351   
      0.0980823351771   0.0979473045223   0.0977914383815   0.0976164460412   0.0974241943142   
      0.0972166704547   0.0969959447883   0.0967641342276   0.0965233677222   0.0962757545251   
      0.096023355963   0.0957681611952   0.0955120672362   0.0952568633198   0.095004219513   
      0.0947556793349   0.0945126560246   0.0942764320216   0.0940481611709   0.093828873151   
      0.0936194796243   0.0934207816435   0.0932334778832   0.0930581733221   0.0928953880546   
      0.0927455659685   0.0926090830813   0.0924862553739   0.0923773460073   0.0922825718431   
      0.0922021092181   0.0921360989457   0.0920846505339   0.0920478456202   0.0920257406293   
      0.106567681524   0.106579697208   0.106615727712   0.106675722757   0.106759596372   
      0.106867223642   0.106998436125   0.107153015936   0.107330688493   0.107531113918   
      0.107753877136   0.107998476703   0.108264312474   0.108550672246   0.108856717584   
      0.109181469122   0.109523791685   0.109882379709   0.110255743502   0.110642196982   
      0.111039847626   0.111446589403   0.111860099524   0.112277839823   0.112697063552   
      0.113114828273   0.113528015386   0.113933356633   0.11432746766   0.114706888449   
      0.115068130082   0.115407727002   0.115722293591   0.116008583619   0.116263550826   
      0.1164844088   0.116668688136   0.116814288922   0.11691952666   0.11698316993   
      0.117004468373   0.11698316993   0.11691952666   0.116814288922   0.116668688136   
      0.1164844088   0.116263550826   0.116008583619   0.115722293591   0.115407727002   
      0.115068130082   0.114706888449   0.11432746766   0.113933356633   0.113528015386   
      0.113114828273   0.112697063552   0.112277839823   0.111860099524   0.111446589403   
      0.111039847626   0.110642196982   0.110255743502   0.109882379709   0.109523791685   
      0.109181469122   0.108856717584   0.108550672246   0.108264312474   0.107998476703   
      0.107753877136   0.107531113918   0.107330688493   0.107153015936   0.106998436125   
      0.106867223642   0.106759596372   0.106675722757   0.106615727712   0.106579697208   
      0.118620584687   0.118637620313   0.118688704072   0.118773765649   0.118892684637   
      0.11904528571   0.119231331832   0.119450515516   0.119702448113   0.119986647156   
      0.120302521816   0.120649356563   0.1210262932   0.121432311488   0.121866208732   
      0.122326578728   0.122811790671   0.123319968698   0.123848972896   0.124396382719   
      0.124959483848   0.125535259625   0.126120388189   0.12671124642   0.127303921728   
      0.127894232512   0.128477757939   0.12904987731   0.129605819009   0.13014071853   
      0.130649684727   0.131127872959   0.13157056343   0.131973242661   0.132331685793   
      0.132642037218   0.132900887001   0.133105340577   0.133253079395   0.133342410427   
      0.13337230282   0.133342410427   0.133253079395   0.133105340577   0.132900887001   
      0.132642037218   0.132331685793   0.131973242661   0.13157056343   0.131127872959   
      0.130649684727   0.13014071853   0.129605819009   0.12904987731   0.128477757939   
      0.127894232512   0.127303921728   0.12671124642   0.126120388189   0.125535259625   
      0.124959483848   0.124396382719   0.123848972896   0.123319968698   0.122811790671   
      0.122326578728   0.121866208732   0.121432311488   0.1210262932   0.120649356563   
      0.120302521816   0.119986647156   0.119702448113   0.119450515516   0.119231331832   
      0.11904528571   0.118892684637   0.118773765649   0.118688704072   0.118637620313   
      0.129919499759   0.129941572756   0.130007760978   0.130117970816   0.130272041928   
      0.130469740742   0.130710751344   0.130994663751   0.131320959596   0.131688995261   
      0.132097982572   0.132546967214   0.133034805118   0.133560137201   0.134121362929   
      0.134716613367   0.135343724495   0.136000211762   0.136683246998   0.137389638931   
      0.138115818665   0.138857831548   0.139611336807   0.14037161629   0.141133593431   
      0.141891863335   0.142640734512   0.143374282362   0.14408641407   0.144770944027   
      0.145421678429   0.146032507217   0.146597501104   0.147111011154   0.1475677681   
      0.147962978566   0.148292415305   0.148552498767   0.148740367503   0.148853935281   
      0.148891933164   0.148853935281   0.148740367503   0.148552498767   0.148292415305   
      0.147962978566   0.1475677681   0.147111011154   0.146597501104   0.146032507217   
      0.145421678429   0.144770944027   0.14408641407   0.143374282362   0.142640734512   
      0.141891863335   0.141133593431   0.14037161629   0.139611336807   0.138857831548   
      0.138115818665   0.137389638931   0.136683246998   0.136000211762   0.135343724495   
      0.134716613367   0.134121362929   0.133560137201   0.133034805118   0.132546967214   
      0.132097982572   0.131688995261   0.131320959596   0.130994663751   0.130710751344   
      0.130469740742   0.130272041928   0.130117970816   0.130007760978   0.129941572756   
      0.139691193987   0.139717655489   0.139797001094   0.139929112497   0.140113787164   
      0.140350730306   0.140639543631   0.140979710913   0.141370580418   0.141811344282   
      0.142301015014   0.142838399369   0.143422069965   0.144050335153   0.144721207816   
      0.145432373935   0.146181161974   0.146964514292   0.147778961979   0.148620604647   
      0.149485096765   0.150367642185   0.15126299839   0.152165491847   0.153069045586   
      0.153967219736   0.154853265291   0.155720190899   0.156560841844   0.157367989908   
      0.158134432214   0.158853096762   0.159517151978   0.160120117388   0.160655972434   
      0.161119260461   0.161505185053   0.161809696157   0.162029563718   0.16216243694   
      0.162206887684   0.16216243694   0.162029563718   0.161809696157   0.161505185053   
      0.161119260461   0.160655972434   0.160120117388   0.159517151978   0.158853096762   
      0.158134432214   0.157367989908   0.156560841844   0.155720190899   0.154853265291   
      0.153967219736   0.153069045586   0.152165491847   0.15126299839   0.150367642185   
      0.149485096765   0.148620604647   0.147778961979   0.146964514292   0.146181161974   
      0.145432373935   0.144721207816   0.144050335153   0.143422069965   0.142838399369   
      0.142301015014   0.141811344282   0.141370580418   0.140979710913   0.140639543631   
      0.140350730306   0.140113787164   0.139929112497   0.139797001094   0.139717655489   
      0.147376611585   0.147406464328   0.14749597605   0.147645005372   0.147853310468   
      0.148120539787   0.14844621909   0.148829734836   0.149270314024   0.149767000629   
      0.150318628861   0.150923793606   0.151580818527   0.152287722483   0.153042185099   
      0.153841512532   0.154682604676   0.155561925251   0.156475476382   0.157418779381   
      0.15838686353   0.159374264562   0.160375034462   0.161382763899   0.162390618259   
      0.16339138779   0.164377551786   0.165341356197   0.166274903398   0.167170252321   
      0.168019526657   0.16881502842   0.169549353974   0.170215509467   0.170807022683   
      0.171318048481   0.171743465253   0.172078960159   0.17232110128   0.172467395199   
      0.172516328899   0.172467395199   0.17232110128   0.172078960159   0.171743465253   
      0.171318048481   0.170807022683   0.170215509467   0.169549353974   0.16881502842   
      0.168019526657   0.167170252321   0.166274903398   0.165341356197   0.164377551786   
      0.16339138779   0.162390618259   0.161382763899   0.160375034462   0.159374264562   
      0.15838686353   0.157418779381   0.156475476382   0.155561925251   0.154682604676   
      0.153841512532   0.153042185099   0.152287722483   0.151580818527   0.150923793606   
      0.150318628861   0.149767000629   0.149270314024   0.148829734836   0.14844621909   
      0.148120539787   0.147853310468   0.147645005372   0.14749597605   0.147406464328   
      0.152610178103   0.152642287196   0.152738562042   0.15289884332   0.153122858716   
      0.153410212782   0.153760372784   0.154172650606   0.154646180837   0.15517989523   
      0.155772493832   0.156422413214   0.157127792367   0.157886437047   0.158695783528   
      0.159552862945   0.160454267635   0.161396121059   0.162374053075   0.163383182373   
      0.164418107975   0.165472911527   0.166541171974   0.167615993844   0.168690049938   
      0.169755638684   0.170804755806   0.171829179326   0.172820566297   0.173770559114   
      0.174670898802   0.175513542368   0.176290781164   0.176995357197   0.177620574488   
      0.17816040285   0.178609571806   0.178963652767   0.179219127989   0.17937344519   
      0.179425057068   0.17937344519   0.179219127989   0.178963652767   0.178609571806   
      0.17816040285   0.177620574488   0.176995357197   0.176290781164   0.175513542368   
      0.174670898802   0.173770559114   0.172820566297   0.171829179326   0.170804755806   
      0.169755638684   0.168690049938   0.167615993844   0.166541171974   0.165472911527   
      0.164418107975   0.163383182373   0.162374053075   0.161396121059   0.160454267635   
      0.159552862945   0.158695783528   0.157886437047   0.157127792367   0.156422413214   
      0.155772493832   0.15517989523   0.154646180837   0.154172650606   0.153760372784   
      0.153410212782   0.153122858716   0.15289884332   0.152738562042   0.152642287196   
      0.155245584994   0.155278810251   0.155378430348   0.155544276138   0.155776058641   
      0.15607335846   0.156435611029   0.156862087769   0.157351873301   0.157903838928   
      0.158516612725   0.159188546704   0.159917681681   0.160701710679   0.161537941907   
      0.162423262572   0.163354105   0.164326416752   0.165335636532   0.166376677815   
      0.16744392206   0.168531223305   0.169631925658   0.170738894856   0.171844564583   
      0.172940997654   0.174019961542   0.175073017066   0.176091618465   0.17706722249   
      0.177991403803   0.178855973637   0.179653098624   0.180375416754   0.181016147636   
      0.181569194581   0.182029236396   0.182391807246   0.182653363301   0.182811335305   
      0.182864166466   0.182811335305   0.182653363301   0.182391807246   0.182029236396   
      0.181569194581   0.181016147636   0.180375416754   0.179653098624   0.178855973637   
      0.177991403803   0.17706722249   0.176091618465   0.175073017066   0.174019961542   
      0.172940997654   0.171844564583   0.170738894856   0.169631925658   0.168531223305   
      0.16744392206   0.166376677815   0.165335636532   0.164326416752   0.163354105   
      0.162423262572   0.161537941907   0.160701710679   0.159917681681   0.159188546704   
      0.158516612725   0.157903838928   0.157351873301   0.156862087769   0.156435611029   
      0.15607335846   0.155776058641   0.155544276138   0.155378430348   0.155278810251   
      0.155245584994   0.155278810251   0.155378430348   0.155544276138   0.155776058641   
      0.15607335846   0.156435611029   0.156862087769   0.157351873301   0.157903838928   
      0.158516612725   0.159188546704   0.159917681681   0.160701710679   0.161537941907   
      0.162423262572   0.163354105   0.164326416752   0.165335636532   0.166376677815   
      0.16744392206   0.168531223305   0.169631925658   0.170738894856   0.171844564583   
      0.172940997654   0.174019961542   0.175073017066   0.176091618465   0.17706722249   
      0.177991403803   0.178855973637   0.179653098624   0.180375416754   0.181016147636   
      0.181569194581   0.182029236396   0.182391807246   0.182653363301   0.182811335305   
      0.182864166466   0.182811335305   0.182653363301   0.182391807246   0.182029236396   
      0.181569194581   0.181016147636   0.180375416754   0.179653098624   0.178855973637   
      0.177991403803   0.17706722249   0.176091618465   0.175073017066   0.174019961542   
      0.172940997654   0.171844564583   0.170738894856   0.169631925658   0.168531223305   
      0.16744392206   0.166376677815   0.165335636532   0.164326416752   0.163354105   
      0.162423262572   0.161537941907   0.160701710679   0.159917681681   0.159188546704   
      0.158516612725   0.157903838928   0.157351873301   0.156862087769   0.156435611029   
      0.15607335846   0.155776058641   0.155544276138   0.155378430348   0.155278810251   
      0.152610178103   0.152642287196   0.152738562042   0.15289884332   0.153122858716   
      0.153410212782   0.153760372784   0.154172650606   0.154646180837   0.15517989523   
      0.155772493832   0.156422413214   0.157127792367   0.157886437047   0.158695783528   
      0.159552862945   0.160454267635   0.161396121059   0.162374053075   0.163383182373   
      0.164418107975   0.165472911527   0.166541171974   0.167615993844   0.168690049938   
      0.169755638684   0.170804755806   0.171829179326   0.172820566297   0.173770559114   
      0.174670898802   0.175513542368   0.176290781164   0.176995357197   0.177620574488   
      0.17816040285   0.178609571806   0.178963652767   0.179219127989   0.17937344519   
      0.179425057068   0.17937344519   0.179219127989   0.178963652767   0.178609571806   
      0.17816040285   0.177620574488   0.176995357197   0.176290781164   0.175513542368   
      0.174670898802   0.173770559114   0.172820566297   0.171829179326   0.170804755806   
      0.169755638684   0.168690049938   0.167615993844   0.166541171974   0.165472911527   
      0.164418107975   0.163383182373   0.162374053075   0.161396121059   0.160454267635   
      0.159552862945   0.158695783528   0.157886437047   0.157127792367   0.156422413214   
      0.155772493832   0.15517989523   0.154646180837   0.154172650606   0.153760372784   
      0.153410212782   0.153122858716   0.15289884332   0.152738562042   0.152642287196   
      0.147376611585   0.147406464328   0.14749597605   0.147645005372   0.147853310468   
      0.148120539787   0.14844621909   0.148829734836   0.149270314024   0.149767000629   
      0.150318628861   0.150923793606   0.151580818527   0.152287722483   0.153042185099   
      0.153841512532   0.154682604676   0.155561925251   0.156475476382   0.157418779381   
      0.15838686353   0.159374264562   0.160375034462   0.161382763899   0.162390618259   
      0.16339138779   0.164377551786   0.165341356197   0.166274903398   0.167170252321   
      0.168019526657   0.16881502842   0.169549353974   0.170215509467   0.170807022683   
      0.171318048481   0.171743465253   0.172078960159   0.17232110128   0.172467395199   
      0.172516328899   0.172467395199   0.17232110128   0.172078960159   0.171743465253   
      0.171318048481   0.170807022683   0.170215509467   0.169549353974   0.16881502842   
      0.168019526657   0.167170252321   0.166274903398   0.165341356197   0.164377551786   
      0.16339138779   0.162390618259   0.161382763899   0.160375034462   0.159374264562   
      0.15838686353   0.157418779381   0.156475476382   0.155561925251   0.154682604676   
      0.153841512532   0.153042185099   0.152287722483   0.151580818527   0.150923793606   
      0.150318628861   0.149767000629   0.149270314024   0.148829734836   0.14844621909   
      0.148120539787   0.147853310468   0.147645005372   0.14749597605   0.147406464328   
      0.139691193987   0.139717655489   0.139797001094   0.139929112497   0.140113787164   
      0.140350730306   0.140639543631   0.140979710913   0.141370580418   0.141811344282   
      0.142301015014   0.142838399369   0.143422069965   0.144050335153   0.144721207816   
      0.145432373935   0.146181161974   0.146964514292   0.147778961979   0.148620604647   
      0.149485096765   0.150367642185   0.15126299839   0.152165491847   0.153069045586   
      0.153967219736   0.154853265291   0.155720190899   0.156560841844   0.157367989908   
      0.158134432214   0.158853096762   0.159517151978   0.160120117388   0.160655972434   
      0.161119260461   0.161505185053   0.161809696157   0.162029563718   0.16216243694   
      0.162206887684   0.16216243694   0.162029563718   0.161809696157   0.161505185053   
      0.161119260461   0.160655972434   0.160120117388   0.159517151978   0.158853096762   
      0.158134432214   0.157367989908   0.156560841844   0.155720190899   0.154853265291   
      0.153967219736   0.153069045586   0.152165491847   0.15126299839   0.150367642185   
      0.149485096765   0.148620604647   0.147778961979   0.146964514292   0.146181161974   
      0.145432373935   0.144721207816   0.144050335153   0.143422069965   0.142838399369   
      0.142301015014   0.141811344282   0.141370580418   0.140979710913   0.140639543631   
      0.140350730306   0.140113787164   0.139929112497   0.139797001094   0.139717655489   
      0.129919499759   0.129941572756   0.130007760978   0.130117970816   0.130272041928   
      0.130469740742   0.130710751344   0.130994663751   0.131320959596   0.131688995261   
      0.132097982572   0.132546967214   0.133034805118   0.133560137201   0.134121362929   
      0.134716613367   0.135343724495   0.136000211762   0.136683246998   0.137389638931   
      0.138115818665   0.138857831548   0.139611336807   0.14037161629   0.141133593431   
      0.141891863335   0.142640734512   0.143374282362   0.14408641407   0.144770944027   
      0.145421678429   0.146032507217   0.146597501104   0.147111011154   0.1475677681   
      0.147962978566   0.148292415305   0.148552498767   0.148740367503   0.148853935281   
      0.148891933164   0.148853935281   0.148740367503   0.148552498767   0.148292415305   
      0.147962978566   0.1475677681   0.147111011154   0.146597501104   0.146032507217   
      0.145421678429   0.144770944027   0.14408641407   0.143374282362   0.142640734512   
      0.141891863335   0.141133593431   0.14037161629   0.139611336807   0.138857831548   
      0.138115818665   0.137389638931   0.136683246998   0.136000211762   0.135343724495   
      0.134716613367   0.134121362929   0.133560137201   0.133034805118   0.132546967214   
      0.132097982572   0.131688995261   0.131320959596   0.130994663751   0.130710751344   