<?xml version="1.0"?>
<VTKFile type="ImageData" version="0.1" byte_order="LittleEndian">
  <ImageData WholeExtent="0 79 0 19 0 19" Origin="0 0 0" Spacing="1 1 1">
  <Piece Extent="0 79 0 19 0 19">
    <PointData Scalars="density">
       <DataArray type="Float32" Name="reddensity" NumberOfComponents="1" format="ascii">
      0   0   0   0   0   
      0   0   0   0   0   
      0   0   0   0   0   
      0   0   0   0   0   
      0   0   0   0   0   
      0   0   0   0   0   
      0   0   0   0   0   
      0   0   0   0   0   
      0   0   0   0   0   
      0   0   0   0   0   
      0   0   0   0   0   
      0   0   0   0   0   
      0   0   0   0   0   
      0   0   0   0   0   
      0   0   0   0   0   
      0   0   0   0   0   
      0   0   0   0   0   
      0   0   0   0   0   
      0   0   0   0   0   
      0   0   0   0   0   
      0   0   0   0   0   
      0   0   0   0   0   
      0   0   0   0   0   
      0   0   0   0   0   
      0   0   0   0   0   
      0   0   0   0   0   
      0   0   0   0   0   
      0   0   0   0   0   
      0   0   0   0   0   
      0   0   0   0   0   
      0   0   0   0   0   
      0   0   0   0   0   
      0   0   0   0   0   
      0   0   0   0   0   
      0   0   0   0   0   
      0   0   0   0   0   
      0   0   0   0   0   
      0   0   0   0   0   
      0   0   0   0   0   
      0   0   0   0   0   
      0   0   0   0   0   
      0   0   0   0   0   
      0   0   0   0   0   
      0   0   0   0   0   
      0   0   0   0   0   
      0   0   0   0   0   
      0   0   0   0   0   
      0   0   0   0   0   
      0   0   0   0   0   
      0   0   0   0   0   
      0   0   0   0   0   
      0   0   0   0   0   
      0   0   0   0   0   
      0   0   0   0   0   
      0   0   0   0   0   
      0   0   0   0   0   
      0   0   0   0   0   
      0   0   0   0   0   
      0   0   0   0   0   
      0   0   0   0   0   
      0   0   0   0   0   
      0   0   0   0   0   
      0   0   0   0   0   
      0   0   0   0   0   
      0   0   0   0   0   
      0   0   0   0   0   
      0   0   0   0   0   
      0   0   0   0   0   
      0   0   0   0   0   
      0   0   0   0   0   
      0   0   0   0   0   
      0   0   0   0   0   
      0   0   0   0   0   
      0   0   0   0   0   
      0   0   0   0   0   
      0   0   0   0   0   
      0   0   0   0   0   
      0   0   0   0   0   
      0   0   0   0   0   
      0   0   0   0   0   
      0   0   0   0   0   
      0   0   0   0   0   
      0   0   0   0   0   
      0   0   0   0   0   
      0   0   0   0   0   
      0   0   0   0   0   
      0   0   0   0   0   
      0   0   0   0   0   
      0   0   0   0   0   
      0   0   0   0   0   
      0   0   0   0   0   
      0   0   0   0   0   
      0   0   0   0   0   
      0   0   0   0   0   
      0   0   0   0   0   
      0   0   0   0   0   
      0   0   0   0   0   
      0   0   0   0   0   
      0   0   0   0   0   
      0   0   0   0   0   
      0   0   0   0   0   
      0   0   0   0   0   
      0   0   0   0   0   
      0   0   0   0   0   
      0   0   0   0   0   
      0   0   0   0   0   
      0   0   0   0   0   
      0   0   0   0   0   
      0   0   0   0   0   
      0   0   0   0   0   
      0   0   0   0   0   
      0   0   0   0   0   
      0   0   0   0   0   
      0   0   0   0   0   
      0   0   0   0   0   
      0   0   0   0   0   
      0   0   0   0   0   
      0   0   0   0   0   
      0   0   0   0   0   
      0   0   0   0   0   
      0   0   0   0   0   
      0   0   0   0   0   
      0   0   0   0   0   
      0   0   0   0   0   
      0   0   0   0   0   
      0   0   0   0   0   
      0   0   0   0   0   
      0   0   0   0   0   
      0   0   0   0   0   
      0   0   0   0   0   
      0   0   0   0   0   
      0   0   0   0   0   
      0   0   0   0   0   
      0   0   0   0   0   
      0   0   0   0   0   
      0   0   0   0   0   
      0   0   0   0   0   
      0   0   0   0   0   
      0   0   0   0   0   
      0   0   0   0   0   
      0   0   0   0   0   
      0   0   0   0   0   
      0   0   0   0   0   
      0   0   0   0   0   
      0   0   0   0   0   
      0   0   0   0   0   
      0   0   0   0   0   
      0   0   0   0   0   
      0   0   0   0   0   
      0   0   0   0   0   
      0   0   0   0   0   
      0   0   0   0   0   
      0   0   0   0   0   
      0   0   0   0   0   
      0   0   0   0   0   
      0   0   0   0   0   
      0   0   0   0   0   
      0   0   0   0   0   
      0   0   0   0   0   
      0   0   0   0   0   
      0   0   0   0   0   
      0   0   0   0   0   
      0   0   0   0   0   
      0   0   0   0   0   
      0   0   0   0   0   
      0   0   0   0   0   
      0   0   0   0   0   
      0   0   0   0   0   
      0   0   0   0   0   
      0   0   0   0   0   
      0   0   0   0   0   
      0   0   0   0   0   
      0   0   0   0   0   
      0   0   0   0   0   
      0   0   0   0   0   
      0   0   0   0   0   
      0   0   0   0   0   
      0   0   0   0   0   
      0   0   0   0   0   
      0   0   0   0   0   
      0   0   0   0   0   
      0   0   0   0   0   
      0   0   0   0   0   
      0   0   0   0   0   
      0   0   0   0   0   
      0   0   0   0   0   
      0   0   0   0   0   
      0   0   0   0   0   
      0   0   0   0   0   
      0   0   0   0   0   
      0   0   0   0   0   
      0   0   0   0   0   
      0   0   0   0   0   
      0   0   0   0   0   
      0   0   0   0   0   
      0   0   0   0   0   
      0   0   0   0   0   
      0   0   0   0   0   
      0   0   0   0   0   
      0   0   0   0   0   
      0   0   0   0   0   
      0   0   0   0   0   
      0   0   0   0   0   
      0   0   0   0   0   
      0   0   0   0   0   
      0   0   0   0   0   
      0   0   0   0   0   
      0   0   0   0   0   
      0   0   0   0   0   
      0   0   0   0   0   
      0   0   0   0   0   
      0   0   0   0   0   
      0   0   0   0   0   
      0   0   0   0   0   
      0   0   0   0   0   
      0   0   0   0   0   
      0   0   0   0   0   
      0   0   0   0   0   
      0   0   0   0   0   
      0   0   0   0   0   
      0   0   0   0   0   
      0   0   0   0   0   
      0   0   0   0   0   
      0   0   0   0   0   
      0   0   0   0   0   
      0   0   0   0   0   
      0   0   0   0   0   
      0   0   0   0   0   
      0   0   0   0   0   
      0   0   0   0   0   
      0   0   0   0   0   
      0   0   0   0   0   
      0   0   0   0   0   
      0   0   0   0   0   
      0   0   0   0   0   
      0   0   0   0   0   
      0   0   0   0   0   
      0   0   0   0   0   
      0   0   0   0   0   
      0   0   0   0   0   
      0   0   0   0   0   
      0   0   0   0   0   
      0   0   0   0   0   
      0   0   0   0   0   
      0   0   0   0   0   
      0   0   0   0   0   
      0   0   0   0   0   
      0   0   0   0   0   
      0   0   0   0   0   
      0   0   0   0   0   
      0   0   0   0   0   
      0   0   0   0   0   
      0   0   0   0   0   
      0   0   0   0   0   
      0   0   0   0   0   
      0   0   0   0   0   
      0   0   0   0   0   
      0   0   0   0   0   
      0   0   0   0   0   
      0   0   0   0   0   
      0   0   0   0   0   
      0   0   0   0   0   
      0   0   0   0   0   
      0   0   0   0   0   
      0   0   0   0   0   
      0   0   0   0   0   
      0   0   0   0   0   
      0   0   0   0   0   
      0   0   0   0   0   
      0   0   0   0   0   
      0   0   0   0   0   
      0   0   0   0   0   
      0   0   0   0   0   
      0   0   0   0   0   
      0   0   0   0   0   
      0   0   0   0   0   
      0   0   0   0   0   
      0   0   0   0   0   
      0   0   0   0   0   
      0   0   0   0   0   
      0   0   0   0   0   
      0   0   0   0   0   
      0   0   0   0   0   
      0   0   0   0   0   
      0   0   0   0   0   
      0   0   0   0   0   
      0   0   0   0   0   
      0   0   0   0   0   
      0   0   0   0   0   
      0   0   0   0   0   
      0   0   0   0   0   
      0   0   0   0   0   
      0   0   0   0   0   
      0   0   0   0   0   
      0   0   0   0   0   
      0   0   0   0   0   
      0   0   0   0   0   
      0   0   0   0   0   
      0   0   0   0   0   
      0   0   0   0   0   
      0   0   0   0   0   
      0   0   0   0   0   
      0   0   0   0   0   
      0   0   0   0   0   
      0   0   0   0   0   
      0   0   0   0   0   
      0   0   0   0   0   
      0   0   0   0   0   
      0   0   0   0   0   
      0   0   0   0   0   
      0   0   0   0   0   
      0   0   0   0   0   
      0   0   0   0   0   
      0   0   0   0   0   
      0   0   0   0   0   
      0   0   0   0   0   
      0   0   0   0   0   
      0   0   0   0   0   
      0   0   0   0   0   
      0   0   0   0   0   
      0   0   0   0   0   
      0   0   0   0   0   
      0   0   0   0   0   
      0   0   0   0   0   
      0   0   0   0   0   
      0   0   0   0   0   
      0   0   0   0   0   
      0   0   0   0   0   
      0   0   0   0   0   
      0   0   0   0   0   
      0   0   0   0   0   
      0   0   0   0   0   
      0   0   0   0   0   
      0   0   0   0   0   
      0   0   0   0   0   
      0   0   0   0   0   
      0.0830967723368   0.0831028450797   0.083121058904   0.0831514002885   0.0831938456641   
      0.0832483598438   0.0833148937882   0.0833933816716   0.083483737208   0.0835858491968   
      0.0836995762471   0.0838247406498   0.0839611213825   0.0841084462567   0.0842663832485   
      0.0844345311037   0.0846124093589   0.0847994479901   0.0849949769746   0.0851982161314   
      0.0854082656907   0.0856240981183   0.08584455179   0.0860683271543   0.086293986044   
      0.0865199547739   0.0867445316048   0.0869658990397   0.0871821412621   0.0873912668202   
      0.0875912364155   0.0877799953854   0.0879555101856   0.088115807904   0.0882590175902   
      0.088383411986   0.0884874481079   0.0885698050802   0.0886294176518   0.0886655039554   
      0.0886775862853   0.0886655039554   0.0886294176518   0.0885698050802   0.0884874481079   
      0.088383411986   0.0882590175902   0.088115807904   0.0879555101856   0.0877799953854   
      0.0875912364155   0.0873912668202   0.0871821412621   0.0869658990397   0.0867445316048   
      0.0865199547739   0.086293986044   0.0860683271543   0.08584455179   0.0856240981183   
      0.0854082656907   0.0851982161314   0.0849949769746   0.0847994479901   0.0846124093589   
      0.0844345311037   0.0842663832485   0.0841084462567   0.0839611213825   0.0838247406498   
      0.0836995762471   0.0835858491968   0.083483737208   0.0833933816716   0.0833148937882   
      0.0832483598438   0.0831938456641   0.0831514002885   0.083121058904   0.0831028450797   
      0.0914098681437   0.091418540187   0.0914445513172   0.0914878860708   0.0915485171169   
      0.0916264028927   0.0917214842372   0.0918336799755   0.0919628813928   0.0921089455399   
      0.0922716873111   0.0924508702533   0.092646196086   0.0928572929502   0.0930837024555   
      0.0933248656626   0.0935801082191   0.0938486249698   0.094129464468   0.0944215139367   
      0.0947234853487   0.0950339034047   0.0953510962843   0.0956731901078   0.0959981080678   
      0.0963235751518   0.0966471292839   0.0969661395399   0.097277831855   0.0975793223368   
      0.0978676579396   0.0981398638652   0.098392996649   0.098624201503   0.0988307721428   
      0.099010211055   0.0991602879812   0.0992790943359   0.0993650913367   0.0994171498138   
      0.0994345799752   0.0994171498138   0.0993650913367   0.0992790943359   0.0991602879812   
      0.099010211055   0.0988307721428   0.098624201503   0.098392996649   0.0981398638652   
      0.0978676579396   0.0975793223368   0.097277831855   0.0969661395399   0.0966471292839   
      0.0963235751518   0.0959981080678   0.0956731901078   0.0953510962843   0.0950339034047   
      0.0947234853487   0.0944215139367   0.094129464468   0.0938486249698   0.0935801082191   
      0.0933248656626   0.0930837024555   0.0928572929502   0.092646196086   0.0924508702533   
      0.0922716873111   0.0921089455399   0.0919628813928   0.0918336799755   0.0917214842372   
      0.0916264028927   0.0915485171169   0.0914878860708   0.0914445513172   0.091418540187   
      0.105568004035   0.105582113464   0.105624435627   0.105694951342   0.105793625934   
      0.105920405135   0.106075209241   0.106257925472   0.106468398402   0.106706418396   
      0.106971707944   0.107263905835   0.107582549162   0.107927053192   0.108296689247   
      0.108690560861   0.1091075786   0.109546434132   0.110005574289   0.110483176087   
      0.110977123848   0.111484989747   0.11200401926   0.112531123049   0.113062876849   
      0.113595530812   0.114125029578   0.114647044039   0.115157015311   0.11565021095   
      0.11612179284   0.116566895543   0.116980713304   0.1173585933   0.117696132228   
      0.117989272967   0.11823439783   0.118428414877   0.118568833918   0.118653829145   
      0.118682285828   0.118653829145   0.118568833918   0.118428414877   0.11823439783   
      0.117989272967   0.117696132228   0.1173585933   0.116980713304   0.116566895543   
      0.11612179284   0.11565021095   0.115157015311   0.114647044039   0.114125029578   
      0.113595530812   0.113062876849   0.112531123049   0.11200401926   0.111484989747   
      0.110977123848   0.110483176087   0.110005574289   0.109546434132   0.1091075786   
      0.108690560861   0.108296689247   0.107927053192   0.107582549162   0.107263905835   
      0.106971707944   0.106706418396   0.106468398402   0.106257925472   0.106075209241   
      0.105920405135   0.105793625934   0.105694951342   0.105624435627   0.105582113464   
      0.117194352409   0.117214343988   0.117274310962   0.117374228826   0.117514052675   
      0.117693711049   0.117913097177   0.118172057529   0.118470377532   0.118807764322   
      0.119183826445   0.119598050421   0.120049774206   0.120538157656   0.121062150271   
      0.121620456653   0.122211500348   0.122833386983   0.123483867873   0.124160305559   
      0.124859642987   0.12557837826   0.126312547054   0.127057714842   0.127808980985   
      0.128560996583   0.129307997572   0.130043854076   0.130762136363   0.131456197005   
      0.132119268047   0.132744571168   0.133325438051   0.133855437516   0.134328505469   
      0.134739073367   0.135082190795   0.135353637836   0.135550023189   0.135668864478   
      0.135708647824   0.135668864478   0.135550023189   0.135353637836   0.135082190795   
      0.134739073367   0.134328505469   0.133855437516   0.133325438051   0.132744571168   
      0.132119268047   0.131456197005   0.130762136363   0.130043854076   0.129307997572   
      0.128560996583   0.127808980985   0.127057714842   0.126312547054   0.12557837826   
      0.124859642987   0.124160305559   0.123483867873   0.122833386983   0.122211500348   
      0.121620456653   0.121062150271   0.120538157656   0.120049774206   0.119598050421   
      0.119183826445   0.118807764322   0.118470377532   0.118172057529   0.117913097177   
      0.117693711049   0.117514052675   0.117374228826   0.117274310962   0.117214343988   
      0.128062285324   0.128088193306   0.128165906665   0.128295391972   0.128476587955   
      0.128709397074   0.128993673578   0.129329207893   0.129715707214   0.130152772145   
      0.13063986929   0.131176299786   0.131761163849   0.132393321588   0.133071350545   
      0.13379350066   0.134557647685   0.135361246363   0.136201285078   0.137074243979   
      0.137976058897   0.138902093596   0.13984712301   0.140805330068   0.14177031852   
      0.142735143764   0.143692363103   0.144634106078   0.145552164673   0.14643810222   
      0.147283378848   0.148079490455   0.148818117409   0.149491278567   0.150091485898   
      0.150611894826   0.151046445515   0.151389990662   0.151638405773   0.151788678574   
      0.151838974819   0.151788678574   0.151638405773   0.151389990662   0.151046445515   
      0.150611894826   0.150091485898   0.149491278567   0.148818117409   0.148079490455   
      0.147283378848   0.14643810222   0.145552164673   0.144634106078   0.143692363103   
      0.142735143764   0.14177031852   0.140805330068   0.13984712301   0.138902093596   
      0.137976058897   0.137074243979   0.136201285078   0.135361246363   0.134557647685   
      0.13379350066   0.133071350545   0.132393321588   0.131761163849   0.131176299786   
      0.13063986929   0.130152772145   0.129715707214   0.129329207893   0.128993673578   
      0.128709397074   0.128476587955   0.128295391972   0.128165906665   0.128088193306   
      0.137455792231   0.137486875207   0.137580109368   0.137735448313   0.137952807699   
      0.138232054637   0.138572992669   0.138975342205   0.139438716238   0.139962591247   
      0.140546273211   0.141188858786   0.141889191864   0.142645815917   0.143456922854   
      0.144320299389   0.145233272331   0.146192654589   0.147194694086   0.148235028147   
      0.149308646203   0.150409863846   0.151532311268   0.152668938924   0.153812042858   
      0.1549533115   0.156083894898   0.15719449636   0.158275485409   0.159317029835   
      0.160309243669   0.161242347001   0.162106833002   0.162893637136   0.163594303482   
      0.164201143288   0.164707381275   0.165107285771   0.1653962794   0.165571027713   
      0.165629503825   0.165571027713   0.1653962794   0.165107285771   0.164707381275   
      0.164201143288   0.163594303482   0.162893637136   0.162106833002   0.161242347001   
      0.160309243669   0.159317029835   0.158275485409   0.15719449636   0.156083894898   
      0.1549533115   0.153812042858   0.152668938924   0.151532311268   0.150409863846   
      0.149308646203   0.148235028147   0.147194694086   0.146192654589   0.145233272331   
      0.144320299389   0.143456922854   0.142645815917   0.141889191864   0.141188858786   
      0.140546273211   0.139962591247   0.139438716238   0.138975342205   0.138572992669   
      0.138232054637   0.137952807699   0.137735448313   0.137580109368   0.137486875207   
      0.144846975807   0.144882077047   0.144987361191   0.145162767042   0.145408184355   
      0.145723441368   0.146108287179   0.146562368823   0.14708520293   0.147676141863   
      0.148334334355   0.149058680783   0.14984778343   0.150699892363   0.151612847862   
      0.152584020764   0.153610252468   0.15468779683   0.155812266584   0.156978587291   
      0.158180962071   0.159412850463   0.160666964623   0.161935285721   0.163209102764   
      0.164479075227   0.165735319802   0.166967520404   0.168165059375   0.169317166665   
      0.17041308284   0.171442231059   0.172394392784   0.17325988195   0.174029712567   
      0.174695755275   0.175250879023   0.175689074854   0.1760055595   0.176196857215   
      0.176260858798   0.176196857215   0.1760055595   0.175689074854   0.175250879023   
      0.174695755275   0.174029712567   0.17325988195   0.172394392784   0.171442231059   
      0.17041308284   0.169317166665   0.168165059375   0.166967520404   0.165735319802   
      0.164479075227   0.163209102764   0.161935285721   0.160666964623   0.159412850463   
      0.158180962071   0.156978587291   0.155812266584   0.15468779683   0.153610252468   
      0.152584020764   0.151612847862   0.150699892363   0.14984778343   0.149058680783   
      0.148334334355   0.147676141863   0.14708520293   0.146562368823   0.146108287179   
      0.145723441368   0.145408184355   0.145162767042   0.144987361191   0.144882077047   
      0.149883636847   0.149921424342   0.150034763014   0.150223578688   0.15048773859   
      0.150827037528   0.151241178395   0.151729746849   0.152292180078   0.152927729597   
      0.153635418146   0.154413990928   0.155261861663   0.156177054244   0.157157141166   
      0.158199180301   0.159299652098   0.160454399722   0.161658575101   0.162906594171   
      0.164192104835   0.165507971128   0.166846276853   0.168198351418   0.169554819834   
      0.170905677798   0.172240391551   0.173548020948   0.174817362868   0.176037110992   
      0.177196027114   0.178283118606   0.179287816516   0.18020014898   0.181010905185   
      0.181711785844   0.182295537104   0.182756065641   0.183088533573   0.183289432471   
      0.18335663618   0.183289432471   0.183088533573   0.182756065641   0.182295537104   
      0.181711785844   0.181010905185   0.18020014898   0.179287816516   0.178283118606   
      0.177196027114   0.176037110992   0.174817362868   0.173548020948   0.172240391551   
      0.170905677798   0.169554819834   0.168198351418   0.166846276853   0.165507971128   
      0.164192104835   0.162906594171   0.161658575101   0.160454399722   0.159299652098   
      0.158199180301   0.157157141166   0.156177054244   0.155261861663   0.154413990928   
      0.153635418146   0.152927729597   0.152292180078   0.151729746849   0.151241178395   
      0.150827037528   0.15048773859   0.150223578688   0.150034763014   0.149921424342   
      0.152421253026   0.152460374035   0.152577710771   0.152773181489   0.153046640322   
      0.153397862767   0.153826525205   0.154332178338   0.15491421446   0.155571828548   
      0.156303973254   0.157109308124   0.157986143571   0.158932380493   0.159945446826   
      0.161022232743   0.162159026734   0.163351455245   0.164594429011   0.165882099527   
      0.167207829266   0.16856417922   0.169942916991   0.171335048084   0.172730872158   
      0.174120064873   0.175491784677   0.176834802545   0.178137651363   0.179388790595   
      0.180576781041   0.181690464071   0.182719139707   0.183652738281   0.184481981076   
      0.185198526251   0.185795097363   0.186265592747   0.186605174884   0.186810339499   
      0.186878964563   0.186810339499   0.186605174884   0.186265592747   0.185795097363   
      0.185198526251   0.184481981076   0.183652738281   0.182719139707   0.181690464071   
      0.180576781041   0.179388790595   0.178137651363   0.176834802545   0.175491784677   
      0.174120064873   0.172730872158   0.171335048084   0.169942916991   0.16856417922   
      0.167207829266   0.165882099527   0.164594429011   0.163351455245   0.162159026734   
      0.161022232743   0.159945446826   0.158932380493   0.157986143571   0.157109308124   
      0.156303973254   0.155571828548   0.15491421446   0.154332178338   0.153826525205   
      0.153397862767   0.153046640322   0.152773181489   0.152577710771   0.152460374035   
      0.152421253026   0.152460374035   0.152577710771   0.152773181489   0.153046640322   
      0.153397862767   0.153826525205   0.154332178338   0.15491421446   0.155571828548   
      0.156303973254   0.157109308124   0.157986143571   0.158932380493   0.159945446826   
      0.161022232743   0.162159026734   0.163351455245   0.164594429011   0.165882099527   
      0.167207829266   0.16856417922   0.169942916991   0.171335048084   0.172730872158   
      0.174120064873   0.175491784677   0.176834802545   0.178137651363   0.179388790595   
      0.180576781041   0.181690464071   0.182719139707   0.183652738281   0.184481981076   
      0.185198526251   0.185795097363   0.186265592747   0.186605174884   0.186810339499   
      0.186878964563   0.186810339499   0.186605174884   0.186265592747   0.185795097363   
      0.185198526251   0.184481981076   0.183652738281   0.182719139707   0.181690464071   
      0.180576781041   0.179388790595   0.178137651363   0.176834802545   0.175491784677   
      0.174120064873   0.172730872158   0.171335048084   0.169942916991   0.16856417922   
      0.167207829266   0.165882099527   0.164594429011   0.163351455245   0.162159026734   
      0.161022232743   0.159945446826   0.158932380493   0.157986143571   0.157109308124   
      0.156303973254   0.155571828548   0.15491421446   0.154332178338   0.153826525205   
      0.153397862767   0.153046640322   0.152773181489   0.152577710771   0.152460374035   
      0.149883636847   0.149921424342   0.150034763014   0.150223578688   0.15048773859   
      0.150827037528   0.151241178395   0.151729746849   0.152292180078   0.152927729597   
      0.153635418146   0.154413990928   0.155261861663   0.156177054244   0.157157141166   
      0.158199180301   0.159299652098   0.160454399722   0.161658575101   0.162906594171   
      0.164192104835   0.165507971128   0.166846276853   0.168198351418   0.169554819834   
      0.170905677798   0.172240391551   0.173548020948   0.174817362868   0.176037110992   
      0.177196027114   0.178283118606   0.179287816516   0.18020014898   0.181010905185   
      0.181711785844   0.182295537104   0.182756065641   0.183088533573   0.183289432471   
      0.18335663618   0.183289432471   0.183088533573   0.182756065641   0.182295537104   
      0.181711785844   0.181010905185   0.18020014898   0.179287816516   0.178283118606   
      0.177196027114   0.176037110992   0.174817362868   0.173548020948   0.172240391551   
      0.170905677798   0.169554819834   0.168198351418   0.166846276853   0.165507971128   
      0.164192104835   0.162906594171   0.161658575101   0.160454399722   0.159299652098   
      0.158199180301   0.157157141166   0.156177054244   0.155261861663   0.154413990928   
      0.153635418146   0.152927729597   0.152292180078   0.151729746849   0.151241178395   
      0.150827037528   0.15048773859   0.150223578688   0.150034763014   0.149921424342   
      0.144846975807   0.144882077047   0.144987361191   0.145162767042   0.145408184355   
      0.145723441368   0.146108287179   0.146562368823   0.14708520293   0.147676141863   
      0.148334334355   0.149058680783   0.14984778343   0.150699892363   0.151612847862   
      0.152584020764   0.153610252468   0.15468779683   0.155812266584   0.156978587291   
      0.158180962071   0.159412850463   0.160666964623   0.161935285721   0.163209102764   
      0.164479075227   0.165735319802   0.166967520404   0.168165059375   0.169317166665   
      0.17041308284   0.171442231059   0.172394392784   0.17325988195   0.174029712567   
      0.174695755275   0.175250879023   0.175689074854   0.1760055595   0.176196857215   
      0.176260858798   0.176196857215   0.1760055595   0.175689074854   0.175250879023   
      0.174695755275   0.174029712567   0.17325988195   0.172394392784   0.171442231059   
      0.17041308284   0.169317166665   0.168165059375   0.166967520404   0.165735319802   
      0.164479075227   0.163209102764   0.161935285721   0.160666964623   0.159412850463   
      0.158180962071   0.156978587291   0.155812266584   0.15468779683   0.153610252468   
      0.152584020764   0.151612847862   0.150699892363   0.14984778343   0.149058680783   
      0.148334334355   0.147676141863   0.14708520293   0.146562368823   0.146108287179   
      0.145723441368   0.145408184355   0.145162767042   0.144987361191   0.144882077047   
      0.137455792231   0.137486875207   0.137580109368   0.137735448313   0.137952807699   
      0.138232054637   0.138572992669   0.138975342205   0.139438716238   0.139962591247   
      0.140546273211   0.141188858786   0.141889191864   0.142645815917   0.143456922854   
      0.144320299389   0.145233272331   0.146192654589   0.147194694086   0.148235028147   
      0.149308646203   0.150409863846   0.151532311268   0.152668938924   0.153812042858   
      0.1549533115   0.156083894898   0.15719449636   0.158275485409   0.159317029835   
      0.160309243669   0.161242347001   0.162106833002   0.162893637136   0.163594303482   
      0.164201143288   0.164707381275   0.165107285771   0.1653962794   0.165571027713   
      0.165629503825   0.165571027713   0.1653962794   0.165107285771   0.164707381275   
      0.164201143288   0.163594303482   0.162893637136   0.162106833002   0.161242347001   
      0.160309243669   0.159317029835   0.158275485409   0.15719449636   0.156083894898   
      0.1549533115   0.153812042858   0.152668938924   0.151532311268   0.150409863846   
      0.149308646203   0.148235028147   0.147194694086   0.146192654589   0.145233272331   
      0.144320299389   0.143456922854   0.142645815917   0.141889191864   0.141188858786   
      0.140546273211   0.139962591247   0.139438716238   0.138975342205   0.138572992669   
      0.138232054637   0.137952807699   0.137735448313   0.137580109368   0.137486875207   
      0.128062285324   0.128088193306   0.128165906665   0.128295391972   0.128476587955   
      0.128709397074   0.128993673578   0.129329207893   0.129715707214   0.130152772145   
      0.13063986929   0.131176299786   0.131761163849   0.132393321588   0.133071350545   
      0.13379350066   0.134557647685   0.135361246363   0.136201285078   0.137074243979   
      0.137976058897   0.138902093596   0.13984712301   0.140805330068   0.14177031852   
      0.142735143764   0.143692363103   0.144634106078   0.145552164673   0.14643810222   
      0.147283378848   0.148079490455   0.148818117409   0.149491278567   0.150091485898   
      0.150611894826   0.151046445515   0.151389990662   0.151638405773   0.151788678574   
      0.151838974819   0.151788678574   0.151638405773   0.151389990662   0.151046445515   
      0.150611894826   0.150091485898   0.149491278567   0.148818117409   0.148079490455   
      0.147283378848   0.14643810222   0.145552164673   0.144634106078   0.143692363103   
      0.142735143764   0.14177031852   0.140805330068   0.13984712301   0.138902093596   
      0.137976058897   0.137074243979   0.136201285078   0.135361246363   0.134557647685   
      0.13379350066   0.133071350545   0.132393321588   0.131761163849   0.131176299786   
      0.13063986929   0.130152772145   0.129715707214   0.129329207893   0.128993673578   