<?xml version="1.0"?>
<VTKFile type="ImageData" version="0.1" byte_order="LittleEndian">
  <ImageData WholeExtent="0 79 0 19 0 19" Origin="0 0 0" Spacing="1 1 1">
  <Piece Extent="0 79 0 19 0 19">
    <PointData Scalars="density">
       <DataArray type="Float32" Name="reddensity" NumberOfComponents="1" format="ascii">
      0   0   0   0   0   
      0   0   0   0   0   
      0   0   0   0   0   
      0   0   0   0   0   
      0   0   0   0   0   
      0   0   0   0   0   
      0   0   0   0   0   
      0   0   0   0   0   
      0   0   0   0   0   
      0   0   0   0   0   
      0   0   0   0   0   
      0   0   0   0   0   
      0   0   0   0   0   
      0   0   0   0   0   
      0   0   0   0   0   
      0   0   0   0   0   
      0   0   0   0   0   
      0   0   0   0   0   
      0   0   0   0   0   
      0   0   0   0   0   
      0   0   0   0   0   
      0   0   0   0   0   
      0   0   0   0   0   
      0   0   0   0   0   
      0   0   0   0   0   
      0   0   0   0   0   
      0   0   0   0   0   
      0   0   0   0   0   
      0   0   0   0   0   
      0   0   0   0   0   
      0   0   0   0   0   
      0   0   0   0   0   
      0   0   0   0   0   
      0   0   0   0   0   
      0   0   0   0   0   
      0   0   0   0   0   
      0   0   0   0   0   
      0   0   0   0   0   
      0   0   0   0   0   
      0   0   0   0   0   
      0   0   0   0   0   
      0   0   0   0   0   
      0   0   0   0   0   
      0   0   0   0   0   
      0   0   0   0   0   
      0   0   0   0   0   
      0   0   0   0   0   
      0   0   0   0   0   
      0   0   0   0   0   
      0   0   0   0   0   
      0   0   0   0   0   
      0   0   0   0   0   
      0   0   0   0   0   
      0   0   0   0   0   
      0   0   0   0   0   
      0   0   0   0   0   
      0   0   0   0   0   
      0   0   0   0   0   
      0   0   0   0   0   
      0   0   0   0   0   
      0   0   0   0   0   
      0   0   0   0   0   
      0   0   0   0   0   
      0   0   0   0   0   
      0   0   0   0   0   
      0   0   0   0   0   
      0   0   0   0   0   
      0   0   0   0   0   
      0   0   0   0   0   
      0   0   0   0   0   
      0   0   0   0   0   
      0   0   0   0   0   
      0   0   0   0   0   
      0   0   0   0   0   
      0   0   0   0   0   
      0   0   0   0   0   
      0   0   0   0   0   
      0   0   0   0   0   
      0   0   0   0   0   
      0   0   0   0   0   
      0   0   0   0   0   
      0   0   0   0   0   
      0   0   0   0   0   
      0   0   0   0   0   
      0   0   0   0   0   
      0   0   0   0   0   
      0   0   0   0   0   
      0   0   0   0   0   
      0   0   0   0   0   
      0   0   0   0   0   
      0   0   0   0   0   
      0   0   0   0   0   
      0   0   0   0   0   
      0   0   0   0   0   
      0   0   0   0   0   
      0   0   0   0   0   
      0   0   0   0   0   
      0   0   0   0   0   
      0   0   0   0   0   
      0   0   0   0   0   
      0   0   0   0   0   
      0   0   0   0   0   
      0   0   0   0   0   
      0   0   0   0   0   
      0   0   0   0   0   
      0   0   0   0   0   
      0   0   0   0   0   
      0   0   0   0   0   
      0   0   0   0   0   
      0   0   0   0   0   
      0   0   0   0   0   
      0   0   0   0   0   
      0   0   0   0   0   
      0   0   0   0   0   
      0   0   0   0   0   
      0   0   0   0   0   
      0   0   0   0   0   
      0   0   0   0   0   
      0   0   0   0   0   
      0   0   0   0   0   
      0   0   0   0   0   
      0   0   0   0   0   
      0   0   0   0   0   
      0   0   0   0   0   
      0   0   0   0   0   
      0   0   0   0   0   
      0   0   0   0   0   
      0   0   0   0   0   
      0   0   0   0   0   
      0   0   0   0   0   
      0   0   0   0   0   
      0   0   0   0   0   
      0   0   0   0   0   
      0   0   0   0   0   
      0   0   0   0   0   
      0   0   0   0   0   
      0   0   0   0   0   
      0   0   0   0   0   
      0   0   0   0   0   
      0   0   0   0   0   
      0   0   0   0   0   
      0   0   0   0   0   
      0   0   0   0   0   
      0   0   0   0   0   
      0   0   0   0   0   
      0   0   0   0   0   
      0   0   0   0   0   
      0   0   0   0   0   
      0   0   0   0   0   
      0   0   0   0   0   
      0   0   0   0   0   
      0   0   0   0   0   
      0   0   0   0   0   
      0   0   0   0   0   
      0   0   0   0   0   
      0   0   0   0   0   
      0   0   0   0   0   
      0   0   0   0   0   
      0   0   0   0   0   
      0   0   0   0   0   
      0   0   0   0   0   
      0   0   0   0   0   
      0   0   0   0   0   
      0   0   0   0   0   
      0   0   0   0   0   
      0   0   0   0   0   
      0   0   0   0   0   
      0   0   0   0   0   
      0   0   0   0   0   
      0   0   0   0   0   
      0   0   0   0   0   
      0   0   0   0   0   
      0   0   0   0   0   
      0   0   0   0   0   
      0   0   0   0   0   
      0   0   0   0   0   
      0   0   0   0   0   
      0   0   0   0   0   
      0   0   0   0   0   
      0   0   0   0   0   
      0   0   0   0   0   
      0   0   0   0   0   
      0   0   0   0   0   
      0   0   0   0   0   
      0   0   0   0   0   
      0   0   0   0   0   
      0   0   0   0   0   
      0   0   0   0   0   
      0   0   0   0   0   
      0   0   0   0   0   
      0   0   0   0   0   
      0   0   0   0   0   
      0   0   0   0   0   
      0   0   0   0   0   
      0   0   0   0   0   
      0   0   0   0   0   
      0   0   0   0   0   
      0   0   0   0   0   
      0   0   0   0   0   
      0   0   0   0   0   
      0   0   0   0   0   
      0   0   0   0   0   
      0   0   0   0   0   
      0   0   0   0   0   
      0   0   0   0   0   
      0   0   0   0   0   
      0   0   0   0   0   
      0   0   0   0   0   
      0   0   0   0   0   
      0   0   0   0   0   
      0   0   0   0   0   
      0   0   0   0   0   
      0   0   0   0   0   
      0   0   0   0   0   
      0   0   0   0   0   
      0   0   0   0   0   
      0   0   0   0   0   
      0   0   0   0   0   
      0   0   0   0   0   
      0   0   0   0   0   
      0   0   0   0   0   
      0   0   0   0   0   
      0   0   0   0   0   
      0   0   0   0   0   
      0   0   0   0   0   
      0   0   0   0   0   
      0   0   0   0   0   
      0   0   0   0   0   
      0   0   0   0   0   
      0   0   0   0   0   
      0   0   0   0   0   
      0   0   0   0   0   
      0   0   0   0   0   
      0   0   0   0   0   
      0   0   0   0   0   
      0   0   0   0   0   
      0   0   0   0   0   
      0   0   0   0   0   
      0   0   0   0   0   
      0   0   0   0   0   
      0   0   0   0   0   
      0   0   0   0   0   
      0   0   0   0   0   
      0   0   0   0   0   
      0   0   0   0   0   
      0   0   0   0   0   
      0   0   0   0   0   
      0   0   0   0   0   
      0   0   0   0   0   
      0   0   0   0   0   
      0   0   0   0   0   
      0   0   0   0   0   
      0   0   0   0   0   
      0   0   0   0   0   
      0   0   0   0   0   
      0   0   0   0   0   
      0   0   0   0   0   
      0   0   0   0   0   
      0   0   0   0   0   
      0   0   0   0   0   
      0   0   0   0   0   
      0   0   0   0   0   
      0   0   0   0   0   
      0   0   0   0   0   
      0   0   0   0   0   
      0   0   0   0   0   
      0   0   0   0   0   
      0   0   0   0   0   
      0   0   0   0   0   
      0   0   0   0   0   
      0   0   0   0   0   
      0   0   0   0   0   
      0   0   0   0   0   
      0   0   0   0   0   
      0   0   0   0   0   
      0   0   0   0   0   
      0   0   0   0   0   
      0   0   0   0   0   
      0   0   0   0   0   
      0   0   0   0   0   
      0   0   0   0   0   
      0   0   0   0   0   
      0   0   0   0   0   
      0   0   0   0   0   
      0   0   0   0   0   
      0   0   0   0   0   
      0   0   0   0   0   
      0   0   0   0   0   
      0   0   0   0   0   
      0   0   0   0   0   
      0   0   0   0   0   
      0   0   0   0   0   
      0   0   0   0   0   
      0   0   0   0   0   
      0   0   0   0   0   
      0   0   0   0   0   
      0   0   0   0   0   
      0   0   0   0   0   
      0   0   0   0   0   
      0   0   0   0   0   
      0   0   0   0   0   
      0   0   0   0   0   
      0   0   0   0   0   
      0   0   0   0   0   
      0   0   0   0   0   
      0   0   0   0   0   
      0   0   0   0   0   
      0   0   0   0   0   
      0   0   0   0   0   
      0   0   0   0   0   
      0   0   0   0   0   
      0   0   0   0   0   
      0   0   0   0   0   
      0   0   0   0   0   
      0   0   0   0   0   
      0   0   0   0   0   
      0   0   0   0   0   
      0   0   0   0   0   
      0   0   0   0   0   
      0   0   0   0   0   
      0   0   0   0   0   
      0   0   0   0   0   
      0   0   0   0   0   
      0   0   0   0   0   
      0   0   0   0   0   
      0   0   0   0   0   
      0   0   0   0   0   
      0   0   0   0   0   
      0   0   0   0   0   
      0   0   0   0   0   
      0   0   0   0   0   
      0   0   0   0   0   
      0   0   0   0   0   
      0   0   0   0   0   
      0   0   0   0   0   
      0   0   0   0   0   
      0.0830611948287   0.0830673425747   0.0830857817874   0.0831165000788   0.0831594757562   
      0.0832146762334   0.0832820557652   0.0833615524698   0.0834530845941   0.0835565459761   
      0.0836718006599   0.0837986766259   0.0839369586157   0.0840863800551   0.0842466141133   
      0.0844172639823   0.0845978525196   0.0847878114654   0.0849864705236   0.0851930466838   
      0.0854066342467   0.0856261961001   0.085850556864   0.0860783985757   0.0863082596068   
      0.0865385374881   0.0867674962574   0.0869932788305   0.0872139247329   0.0874273933153   
      0.0876315923207   0.0878244113846   0.088003759756   0.0881676072328   0.0883140270467   
      0.0884412392196   0.0885476527722   0.0886319051049   0.0886928969093   0.0887298210981   
      0.088742184466   0.0887298210981   0.0886928969093   0.0886319051049   0.0885476527722   
      0.0884412392196   0.0883140270467   0.0881676072328   0.088003759756   0.0878244113846   
      0.0876315923207   0.0874273933153   0.0872139247329   0.0869932788305   0.0867674962574   
      0.0865385374881   0.0863082596068   0.0860783985757   0.085850556864   0.0856261961001   
      0.0854066342467   0.0851930466838   0.0849864705236   0.0847878114654   0.0845978525196   
      0.0844172639823   0.0842466141133   0.0840863800551   0.0839369586157   0.0837986766259   
      0.0836718006599   0.0835565459761   0.0834530845941   0.0833615524698   0.0832820557652   
      0.0832146762334   0.0831594757562   0.0831165000788   0.0830857817874   0.0830673425747   
      0.0913585605805   0.091367338255   0.0913936668644   0.0914375326966   0.0914989113215   
      0.0915777651956   0.0916740402503   0.091787661408   0.091918526964   0.0920665017651   
      0.0922314091225   0.0924130214057   0.0926110492919   0.0928251296786   0.093054812323   
      0.0932995453389   0.0935586597691   0.0938313535538   0.0941166753311   0.0944135086329   
      0.0947205571652   0.0950363319829   0.0953591414716   0.0956870851189   0.0960180520825   
      0.0963497255321   0.0966795936435   0.0970049679465   0.0973230094866   0.0976307629363   
      0.0979251984237   0.0982032604293   0.098461922679   0.0986982475499   0.0989094481437   
      0.0990929508901   0.0992464563576   0.0993679958805   0.0994559816722   0.0995092482951   
      0.0995270836767   0.0995092482951   0.0994559816722   0.0993679958805   0.0992464563576   
      0.0990929508901   0.0989094481437   0.0986982475499   0.098461922679   0.0982032604293   
      0.0979251984237   0.0976307629363   0.0973230094866   0.0970049679465   0.0966795936435   
      0.0963497255321   0.0960180520825   0.0956870851189   0.0953591414716   0.0950363319829   
      0.0947205571652   0.0944135086329   0.0941166753311   0.0938313535538   0.0935586597691   
      0.0932995453389   0.093054812323   0.0928251296786   0.0926110492919   0.0924130214057   
      0.0922314091225   0.0920665017651   0.091918526964   0.091787661408   0.0916740402503   
      0.0915777651956   0.0914989113215   0.0914375326966   0.0913936668644   0.091367338255   
      0.105483696851   0.105497975785   0.105540807492   0.105612175868   0.105712051335   
      0.105840386681   0.105997111144   0.106182122639   0.10639527803   0.106636381338   
      0.106905169783   0.107201297584   0.107524317483   0.107873660031   0.108248610765   
      0.108648285527   0.109071604318   0.109517264278   0.109983712546   0.110469120003   
      0.110971357061   0.111487972906   0.112016179696   0.112552843365   0.113094482653   
      0.113637277909   0.114177091038   0.114709497588   0.115229831595   0.115733243217   
      0.116214768598   0.116669410731   0.117092229429   0.11747843792   0.117823503017   
      0.118123245472   0.118373936863   0.118572389325   0.118716034597   0.118802989186   
      0.118832102968   0.118802989186   0.118716034597   0.118572389325   0.118373936863   
      0.118123245472   0.117823503017   0.11747843792   0.117092229429   0.116669410731   
      0.116214768598   0.115733243217   0.115229831595   0.114709497588   0.114177091038   
      0.113637277909   0.113094482653   0.112552843365   0.112016179696   0.111487972906   
      0.110971357061   0.110469120003   0.109983712546   0.109517264278   0.109071604318   
      0.108648285527   0.108248610765   0.107873660031   0.107524317483   0.107201297584   
      0.106905169783   0.106636381338   0.10639527803   0.106182122639   0.105997111144   
      0.105840386681   0.105712051335   0.105612175868   0.105540807492   0.105497975785   
      0.117074012912   0.117094243306   0.117154928244   0.117256047763   0.117397564474   
      0.117579417313   0.117801512656   0.118063712675   0.118365820784   0.118707564048   
      0.119088572416   0.119508354705   0.119966271331   0.120461503885   0.120993021806   
      0.121559546596   0.122159514233   0.122791036719   0.123451863955   0.124139347467   
      0.124850407744   0.125581507203   0.12632863098   0.127087277786   0.127852463015   
      0.128618736102   0.129380213721   0.130130629909   0.13086340352   0.131571722618   
      0.132248644597   0.132887209921   0.133480566609   0.134022101873   0.134505576773   
      0.134925259432   0.135276052197   0.135553608239   0.135754433391   0.135875969519   
      0.135916656351   0.135875969519   0.135754433391   0.135553608239   0.135276052197   
      0.134925259432   0.134505576773   0.134022101873   0.133480566609   0.132887209921   
      0.132248644597   0.131571722618   0.13086340352   0.130130629909   0.129380213721   
      0.128618736102   0.127852463015   0.127087277786   0.12632863098   0.125581507203   
      0.124850407744   0.124139347467   0.123451863955   0.122791036719   0.122159514233   
      0.121559546596   0.120993021806   0.120461503885   0.119966271331   0.119508354705   
      0.119088572416   0.118707564048   0.118365820784   0.118063712675   0.117801512656   
      0.117579417313   0.117397564474   0.117256047763   0.117154928244   0.117094243306   
      0.127905473764   0.12793169129   0.128010335287   0.128141378326   0.128324769049   
      0.128560423611   0.128848213533   0.12918794981   0.129579363108   0.130022079893   
      0.130515594366   0.131059236164   0.131652133878   0.132293174631   0.13298096015   
      0.133713760041   0.134489463285   0.13530552933   0.136158940497   0.137046157808   
      0.137963082631   0.138905026817   0.139866694084   0.140842175425   0.141824961071   
      0.14280797114   0.143783606507   0.144743820605   0.145680211977   0.146584136361   
      0.147446836099   0.1482595837   0.149013835594   0.149701391496   0.150314554438   
      0.150846286386   0.151290354495   0.151641463354   0.15189536911   0.152048971955   
      0.152100384203   0.152048971955   0.15189536911   0.151641463354   0.151290354495   
      0.150846286386   0.150314554438   0.149701391496   0.149013835594   0.1482595837   
      0.147446836099   0.146584136361   0.145680211977   0.144743820605   0.143783606507   
      0.14280797114   0.141824961071   0.140842175425   0.139866694084   0.138905026817   
      0.137963082631   0.137046157808   0.136158940497   0.13530552933   0.134489463285   
      0.133713760041   0.13298096015   0.132293174631   0.131652133878   0.131059236164   
      0.130515594366   0.130022079893   0.129579363108   0.12918794981   0.128848213533   
      0.128560423611   0.128324769049   0.128141378326   0.128010335287   0.12793169129   
      0.137266893946   0.13729834992   0.137392705492   0.137549921488   0.137769925485   
      0.138052601031   0.138397772338   0.138805184331   0.139274477837   0.139805159805   
      0.140396568445   0.141047833322   0.141757830579   0.142525133706   0.143347960537   
      0.144224117512   0.14515094262   0.146125248885   0.147143270635   0.148200615255   
      0.149292223371   0.150412340657   0.15155450446   0.152711548237   0.15387562641   
      0.155038261552   0.156190414961   0.157322580614   0.158424901383   0.159487305199   
      0.160499657833   0.161451928048   0.162334360237   0.163137649327   0.163853112641   
      0.164472853655   0.164989913008   0.165398402728   0.165693620317   0.16587214005   
      0.165931879514   0.16587214005   0.165693620317   0.165398402728   0.164989913008   
      0.164472853655   0.163853112641   0.163137649327   0.162334360237   0.161451928048   
      0.160499657833   0.159487305199   0.158424901383   0.157322580614   0.156190414961   
      0.155038261552   0.15387562641   0.152711548237   0.15155450446   0.150412340657   
      0.149292223371   0.148200615255   0.147143270635   0.146125248885   0.14515094262   
      0.144224117512   0.143347960537   0.142525133706   0.141757830579   0.141047833322   
      0.140396568445   0.139805159805   0.139274477837   0.138805184331   0.138397772338   
      0.138052601031   0.137769925485   0.137549921488   0.137392705492   0.13729834992   
      0.144633042345   0.144668567345   0.144775125491   0.144952663713   0.145201085155   
      0.145520236476   0.145909889872   0.146369719658   0.146899273274   0.147497936576   
      0.148164893402   0.148899079523   0.149699131312   0.15056332973   0.151489540585   
      0.152475152424   0.153517013858   0.154611372624   0.155753819108   0.156939237468   
      0.158161767773   0.159414782665   0.160690881948   0.161981908133   0.163278985303   
      0.164572582799   0.165852604073   0.167108499827   0.168329403282   0.169504284212   
      0.170622117366   0.171672060195   0.172643634375   0.173526905626   0.174312656589   
      0.174992548119   0.175559265059   0.176006643427   0.17632977672   0.176525099772   
      0.176590449186   0.176525099772   0.17632977672   0.176006643427   0.175559265059   
      0.174992548119   0.174312656589   0.173526905626   0.172643634375   0.171672060195   
      0.170622117366   0.169504284212   0.168329403282   0.167108499827   0.165852604073   
      0.164572582799   0.163278985303   0.161981908133   0.160690881948   0.159414782665   
      0.158161767773   0.156939237468   0.155753819108   0.154611372624   0.153517013858   
      0.152475152424   0.151489540585   0.15056332973   0.149699131312   0.148899079523   
      0.148164893402   0.147497936576   0.146899273274   0.146369719658   0.145909889872   
      0.145520236476   0.145201085155   0.144952663713   0.144775125491   0.144668567345   
      0.149652904174   0.149691150352   0.149805867989   0.149996991601   0.150264402721   
      0.150607915809   0.151027258329   0.151522044866   0.152091745132   0.152735645784   
      0.153452806105   0.154242007743   0.155101698965   0.156029934214   0.157024310125   
      0.158081899626   0.159199186237   0.160372001189   0.161595466431   0.16286394699   
      0.164171016356   0.16550943859   0.166871170593   0.168247387464   0.169628533022   
      0.171004396503   0.172364215136   0.173696800971   0.174990688927   0.176234301912   
      0.177416127891   0.178524903267   0.179549796778   0.180480588345   0.181307837916   
      0.182023040154   0.182618761813   0.183088759574   0.183428077025   0.183633120126   
      0.183701711003   0.183633120126   0.183428077025   0.183088759574   0.182618761813   
      0.182023040154   0.181307837916   0.180480588345   0.179549796778   0.178524903267   
      0.177416127891   0.176234301912   0.174990688927   0.173696800971   0.172364215136   
      0.171004396503   0.169628533022   0.168247387464   0.166871170593   0.16550943859   
      0.164171016356   0.16286394699   0.161595466431   0.160372001189   0.159199186237   
      0.158081899626   0.157024310125   0.156029934214   0.155101698965   0.154242007743   
      0.153452806105   0.152735645784   0.152091745132   0.151522044866   0.151027258329   
      0.150607915809   0.150264402721   0.149996991601   0.149805867989   0.149691150352   
      0.152182160901   0.152221758293   0.152340527187   0.152538394794   0.152815229991   
      0.153170828493   0.153604891932   0.154117000677   0.154706580293   0.155372861581   
      0.156114834272   0.156931194652   0.15782028763   0.158780044142   0.159807915172   
      0.160900804165   0.162055000097   0.163266114011   0.164529022261   0.165837820075   
      0.167185789255   0.168565383746   0.169968236539   0.171385190702   0.172806356437   
      0.174221194861   0.175618627852   0.176987171858   0.178315092237   0.179590573477   
      0.180801899862   0.181937640674   0.182986834   0.183939163663   0.18478512448   
      0.185516172067   0.186124854456   0.186604923822   0.186951427544   0.187160778447   
      0.187230804508   0.187160778447   0.186951427544   0.186604923822   0.186124854456   
      0.185516172067   0.18478512448   0.183939163663   0.182986834   0.181937640674   
      0.180801899862   0.179590573477   0.178315092237   0.176987171858   0.175618627852   
      0.174221194861   0.172806356437   0.171385190702   0.169968236539   0.168565383746   
      0.167185789255   0.165837820075   0.164529022261   0.163266114011   0.162055000097   
      0.160900804165   0.159807915172   0.158780044142   0.15782028763   0.156931194652   
      0.156114834272   0.155372861581   0.154706580293   0.154117000677   0.153604891932   
      0.153170828493   0.152815229991   0.152538394794   0.152340527187   0.152221758293   
      0.152182160901   0.152221758293   0.152340527187   0.152538394794   0.152815229991   
      0.153170828493   0.153604891932   0.154117000677   0.154706580293   0.155372861581   
      0.156114834272   0.156931194652   0.15782028763   0.158780044142   0.159807915172   
      0.160900804165   0.162055000097   0.163266114011   0.164529022261   0.165837820075   
      0.167185789255   0.168565383746   0.169968236539   0.171385190702   0.172806356437   
      0.174221194861   0.175618627852   0.176987171858   0.178315092237   0.179590573477   
      0.180801899862   0.181937640674   0.182986834   0.183939163663   0.18478512448   
      0.185516172067   0.186124854456   0.186604923822   0.186951427544   0.187160778447   
      0.187230804508   0.187160778447   0.186951427544   0.186604923822   0.186124854456   
      0.185516172067   0.18478512448   0.183939163663   0.182986834   0.181937640674   
      0.180801899862   0.179590573477   0.178315092237   0.176987171858   0.175618627852   
      0.174221194861   0.172806356437   0.171385190702   0.169968236539   0.168565383746   
      0.167185789255   0.165837820075   0.164529022261   0.163266114011   0.162055000097   
      0.160900804165   0.159807915172   0.158780044142   0.15782028763   0.156931194652   
      0.156114834272   0.155372861581   0.154706580293   0.154117000677   0.153604891932   
      0.153170828493   0.152815229991   0.152538394794   0.152340527187   0.152221758293   
      0.149652904174   0.149691150352   0.149805867989   0.149996991601   0.150264402721   
      0.150607915809   0.151027258329   0.151522044866   0.152091745132   0.152735645784   
      0.153452806105   0.154242007743   0.155101698965   0.156029934214   0.157024310125   
      0.158081899626   0.159199186237   0.160372001189   0.161595466431   0.16286394699   
      0.164171016356   0.16550943859   0.166871170593   0.168247387464   0.169628533022   
      0.171004396503   0.172364215136   0.173696800971   0.174990688927   0.176234301912   
      0.177416127891   0.178524903267   0.179549796778   0.180480588345   0.181307837916   
      0.182023040154   0.182618761813   0.183088759574   0.183428077025   0.183633120126   
      0.183701711003   0.183633120126   0.183428077025   0.183088759574   0.182618761813   
      0.182023040154   0.181307837916   0.180480588345   0.179549796778   0.178524903267   
      0.177416127891   0.176234301912   0.174990688927   0.173696800971   0.172364215136   
      0.171004396503   0.169628533022   0.168247387464   0.166871170593   0.16550943859   
      0.164171016356   0.16286394699   0.161595466431   0.160372001189   0.159199186237   
      0.158081899626   0.157024310125   0.156029934214   0.155101698965   0.154242007743   
      0.153452806105   0.152735645784   0.152091745132   0.151522044866   0.151027258329   
      0.150607915809   0.150264402721   0.149996991601   0.149805867989   0.149691150352   
      0.144633042345   0.144668567345   0.144775125491   0.144952663713   0.145201085155   
      0.145520236476   0.145909889872   0.146369719658   0.146899273274   0.147497936576   
      0.148164893402   0.148899079523   0.149699131312   0.15056332973   0.151489540585   
      0.152475152424   0.153517013858   0.154611372624   0.155753819108   0.156939237468   
      0.158161767773   0.159414782665   0.160690881948   0.161981908133   0.163278985303   
      0.164572582799   0.165852604073   0.167108499827   0.168329403282   0.169504284212   
      0.170622117366   0.171672060195   0.172643634375   0.173526905626   0.174312656589   
      0.174992548119   0.175559265059   0.176006643427   0.17632977672   0.176525099772   
      0.176590449186   0.176525099772   0.17632977672   0.176006643427   0.175559265059   
      0.174992548119   0.174312656589   0.173526905626   0.172643634375   0.171672060195   
      0.170622117366   0.169504284212   0.168329403282   0.167108499827   0.165852604073   
      0.164572582799   0.163278985303   0.161981908133   0.160690881948   0.159414782665   
      0.158161767773   0.156939237468   0.155753819108   0.154611372624   0.153517013858   
      0.152475152424   0.151489540585   0.15056332973   0.149699131312   0.148899079523   
      0.148164893402   0.147497936576   0.146899273274   0.146369719658   0.145909889872   
      0.145520236476   0.145201085155   0.144952663713   0.144775125491   0.144668567345   
      0.137266893946   0.13729834992   0.137392705492   0.137549921488   0.137769925485   
      0.138052601031   0.138397772338   0.138805184331   0.139274477837   0.139805159805   
      0.140396568445   0.141047833322   0.141757830579   0.142525133706   0.143347960537   
      0.144224117512   0.14515094262   0.146125248885   0.147143270635   0.148200615255   
      0.149292223371   0.150412340657   0.15155450446   0.152711548237   0.15387562641   
      0.155038261552   0.156190414961   0.157322580614   0.158424901383   0.159487305199   
      0.160499657833   0.161451928048   0.162334360237   0.163137649327   0.163853112641   
      0.164472853655   0.164989913008   0.165398402728   0.165693620317   0.16587214005   
      0.165931879514   0.16587214005   0.165693620317   0.165398402728   0.164989913008   
      0.164472853655   0.163853112641   0.163137649327   0.162334360237   0.161451928048   
      0.160499657833   0.159487305199   0.158424901383   0.157322580614   0.156190414961   
      0.155038261552   0.15387562641   0.152711548237   0.15155450446   0.150412340657   
      0.149292223371   0.148200615255   0.147143270635   0.146125248885   0.14515094262   
      0.144224117512   0.143347960537   0.142525133706   0.141757830579   0.141047833322   
      0.140396568445   0.139805159805   0.139274477837   0.138805184331   0.138397772338   
      0.138052601031   0.137769925485   0.137549921488   0.137392705492   0.13729834992   
      0.127905473764   0.12793169129   0.128010335287   0.128141378326   0.128324769049   
      0.128560423611   0.128848213533   0.12918794981   0.129579363108   0.130022079893   
      0.130515594366   0.131059236164   0.131652133878   0.132293174631   0.13298096015   
      0.133713760041   0.134489463285   0.13530552933   0.136158940497   0.137046157808   
      0.137963082631   0.138905026817   0.139866694084   0.140842175425   0.141824961071   
      0.14280797114   0.143783606507   0.144743820605   0.145680211977   0.146584136361   
      0.147446836099   0.1482595837   0.149013835594   0.149701391496   0.150314554438   
      0.150846286386   0.151290354495   0.151641463354   0.15189536911   0.152048971955   
      0.152100384203   0.152048971955   0.15189536911   0.151641463354   0.151290354495   
      0.150846286386   0.150314554438   0.149701391496   0.149013835594   0.1482595837   
      0.147446836099   0.146584136361   0.145680211977   0.144743820605   0.143783606507   
      0.14280797114   0.141824961071   0.140842175425   0.139866694084   0.138905026817   
      0.137963082631   0.137046157808   0.136158940497   0.13530552933   0.134489463285   
      0.133713760041   0.13298096015   0.132293174631   0.131652133878   0.131059236164   
      0.130515594366   0.130022079893   0.129579363108   0.12918794981   0.128848213533   