<?xml version="1.0"?>
<VTKFile type="ImageData" version="0.1" byte_order="LittleEndian">
  <ImageData WholeExtent="0 79 0 19 0 19" Origin="0 0 0" Spacing="1 1 1">
  <Piece Extent="0 79 0 19 0 19">
    <PointData Scalars="density">
       <DataArray type="Float32" Name="reddensity" NumberOfComponents="1" format="ascii">
      0   0   0   0   0   
      0   0   0   0   0   
      0   0   0   0   0   
      0   0   0   0   0   
      0   0   0   0   0   
      0   0   0   0   0   
      0   0   0   0   0   
      0   0   0   0   0   
      0   0   0   0   0   
      0   0   0   0   0   
      0   0   0   0   0   
      0   0   0   0   0   
      0   0   0   0   0   
      0   0   0   0   0   
      0   0   0   0   0   
      0   0   0   0   0   
      0   0   0   0   0   
      0   0   0   0   0   
      0   0   0   0   0   
      0   0   0   0   0   
      0   0   0   0   0   
      0   0   0   0   0   
      0   0   0   0   0   
      0   0   0   0   0   
      0   0   0   0   0   
      0   0   0   0   0   
      0   0   0   0   0   
      0   0   0   0   0   
      0   0   0   0   0   
      0   0   0   0   0   
      0   0   0   0   0   
      0   0   0   0   0   
      0   0   0   0   0   
      0   0   0   0   0   
      0   0   0   0   0   
      0   0   0   0   0   
      0   0   0   0   0   
      0   0   0   0   0   
      0   0   0   0   0   
      0   0   0   0   0   
      0   0   0   0   0   
      0   0   0   0   0   
      0   0   0   0   0   
      0   0   0   0   0   
      0   0   0   0   0   
      0   0   0   0   0   
      0   0   0   0   0   
      0   0   0   0   0   
      0   0   0   0   0   
      0   0   0   0   0   
      0   0   0   0   0   
      0   0   0   0   0   
      0   0   0   0   0   
      0   0   0   0   0   
      0   0   0   0   0   
      0   0   0   0   0   
      0   0   0   0   0   
      0   0   0   0   0   
      0   0   0   0   0   
      0   0   0   0   0   
      0   0   0   0   0   
      0   0   0   0   0   
      0   0   0   0   0   
      0   0   0   0   0   
      0   0   0   0   0   
      0   0   0   0   0   
      0   0   0   0   0   
      0   0   0   0   0   
      0   0   0   0   0   
      0   0   0   0   0   
      0   0   0   0   0   
      0   0   0   0   0   
      0   0   0   0   0   
      0   0   0   0   0   
      0   0   0   0   0   
      0   0   0   0   0   
      0   0   0   0   0   
      0   0   0   0   0   
      0   0   0   0   0   
      0   0   0   0   0   
      0   0   0   0   0   
      0   0   0   0   0   
      0   0   0   0   0   
      0   0   0   0   0   
      0   0   0   0   0   
      0   0   0   0   0   
      0   0   0   0   0   
      0   0   0   0   0   
      0   0   0   0   0   
      0   0   0   0   0   
      0   0   0   0   0   
      0   0   0   0   0   
      0   0   0   0   0   
      0   0   0   0   0   
      0   0   0   0   0   
      0   0   0   0   0   
      0   0   0   0   0   
      0   0   0   0   0   
      0   0   0   0   0   
      0   0   0   0   0   
      0   0   0   0   0   
      0   0   0   0   0   
      0   0   0   0   0   
      0   0   0   0   0   
      0   0   0   0   0   
      0   0   0   0   0   
      0   0   0   0   0   
      0   0   0   0   0   
      0   0   0   0   0   
      0   0   0   0   0   
      0   0   0   0   0   
      0   0   0   0   0   
      0   0   0   0   0   
      0   0   0   0   0   
      0   0   0   0   0   
      0   0   0   0   0   
      0   0   0   0   0   
      0   0   0   0   0   
      0   0   0   0   0   
      0   0   0   0   0   
      0   0   0   0   0   
      0   0   0   0   0   
      0   0   0   0   0   
      0   0   0   0   0   
      0   0   0   0   0   
      0   0   0   0   0   
      0   0   0   0   0   
      0   0   0   0   0   
      0   0   0   0   0   
      0   0   0   0   0   
      0   0   0   0   0   
      0   0   0   0   0   
      0   0   0   0   0   
      0   0   0   0   0   
      0   0   0   0   0   
      0   0   0   0   0   
      0   0   0   0   0   
      0   0   0   0   0   
      0   0   0   0   0   
      0   0   0   0   0   
      0   0   0   0   0   
      0   0   0   0   0   
      0   0   0   0   0   
      0   0   0   0   0   
      0   0   0   0   0   
      0   0   0   0   0   
      0   0   0   0   0   
      0   0   0   0   0   
      0   0   0   0   0   
      0   0   0   0   0   
      0   0   0   0   0   
      0   0   0   0   0   
      0   0   0   0   0   
      0   0   0   0   0   
      0   0   0   0   0   
      0   0   0   0   0   
      0   0   0   0   0   
      0   0   0   0   0   
      0   0   0   0   0   
      0   0   0   0   0   
      0   0   0   0   0   
      0   0   0   0   0   
      0   0   0   0   0   
      0   0   0   0   0   
      0   0   0   0   0   
      0   0   0   0   0   
      0   0   0   0   0   
      0   0   0   0   0   
      0   0   0   0   0   
      0   0   0   0   0   
      0   0   0   0   0   
      0   0   0   0   0   
      0   0   0   0   0   
      0   0   0   0   0   
      0   0   0   0   0   
      0   0   0   0   0   
      0   0   0   0   0   
      0   0   0   0   0   
      0   0   0   0   0   
      0   0   0   0   0   
      0   0   0   0   0   
      0   0   0   0   0   
      0   0   0   0   0   
      0   0   0   0   0   
      0   0   0   0   0   
      0   0   0   0   0   
      0   0   0   0   0   
      0   0   0   0   0   
      0   0   0   0   0   
      0   0   0   0   0   
      0   0   0   0   0   
      0   0   0   0   0   
      0   0   0   0   0   
      0   0   0   0   0   
      0   0   0   0   0   
      0   0   0   0   0   
      0   0   0   0   0   
      0   0   0   0   0   
      0   0   0   0   0   
      0   0   0   0   0   
      0   0   0   0   0   
      0   0   0   0   0   
      0   0   0   0   0   
      0   0   0   0   0   
      0   0   0   0   0   
      0   0   0   0   0   
      0   0   0   0   0   
      0   0   0   0   0   
      0   0   0   0   0   
      0   0   0   0   0   
      0   0   0   0   0   
      0   0   0   0   0   
      0   0   0   0   0   
      0   0   0   0   0   
      0   0   0   0   0   
      0   0   0   0   0   
      0   0   0   0   0   
      0   0   0   0   0   
      0   0   0   0   0   
      0   0   0   0   0   
      0   0   0   0   0   
      0   0   0   0   0   
      0   0   0   0   0   
      0   0   0   0   0   
      0   0   0   0   0   
      0   0   0   0   0   
      0   0   0   0   0   
      0   0   0   0   0   
      0   0   0   0   0   
      0   0   0   0   0   
      0   0   0   0   0   
      0   0   0   0   0   
      0   0   0   0   0   
      0   0   0   0   0   
      0   0   0   0   0   
      0   0   0   0   0   
      0   0   0   0   0   
      0   0   0   0   0   
      0   0   0   0   0   
      0   0   0   0   0   
      0   0   0   0   0   
      0   0   0   0   0   
      0   0   0   0   0   
      0   0   0   0   0   
      0   0   0   0   0   
      0   0   0   0   0   
      0   0   0   0   0   
      0   0   0   0   0   
      0   0   0   0   0   
      0   0   0   0   0   
      0   0   0   0   0   
      0   0   0   0   0   
      0   0   0   0   0   
      0   0   0   0   0   
      0   0   0   0   0   
      0   0   0   0   0   
      0   0   0   0   0   
      0   0   0   0   0   
      0   0   0   0   0   
      0   0   0   0   0   
      0   0   0   0   0   
      0   0   0   0   0   
      0   0   0   0   0   
      0   0   0   0   0   
      0   0   0   0   0   
      0   0   0   0   0   
      0   0   0   0   0   
      0   0   0   0   0   
      0   0   0   0   0   
      0   0   0   0   0   
      0   0   0   0   0   
      0   0   0   0   0   
      0   0   0   0   0   
      0   0   0   0   0   
      0   0   0   0   0   
      0   0   0   0   0   
      0   0   0   0   0   
      0   0   0   0   0   
      0   0   0   0   0   
      0   0   0   0   0   
      0   0   0   0   0   
      0   0   0   0   0   
      0   0   0   0   0   
      0   0   0   0   0   
      0   0   0   0   0   
      0   0   0   0   0   
      0   0   0   0   0   
      0   0   0   0   0   
      0   0   0   0   0   
      0   0   0   0   0   
      0   0   0   0   0   
      0   0   0   0   0   
      0   0   0   0   0   
      0   0   0   0   0   
      0   0   0   0   0   
      0   0   0   0   0   
      0   0   0   0   0   
      0   0   0   0   0   
      0   0   0   0   0   
      0   0   0   0   0   
      0   0   0   0   0   
      0   0   0   0   0   
      0   0   0   0   0   
      0   0   0   0   0   
      0   0   0   0   0   
      0   0   0   0   0   
      0   0   0   0   0   
      0   0   0   0   0   
      0   0   0   0   0   
      0   0   0   0   0   
      0   0   0   0   0   
      0   0   0   0   0   
      0   0   0   0   0   
      0   0   0   0   0   
      0   0   0   0   0   
      0   0   0   0   0   
      0   0   0   0   0   
      0   0   0   0   0   
      0   0   0   0   0   
      0   0   0   0   0   
      0   0   0   0   0   
      0   0   0   0   0   
      0   0   0   0   0   
      0   0   0   0   0   
      0   0   0   0   0   
      0   0   0   0   0   
      0   0   0   0   0   
      0   0   0   0   0   
      0   0   0   0   0   
      0   0   0   0   0   
      0   0   0   0   0   
      0   0   0   0   0   
      0   0   0   0   0   
      0   0   0   0   0   
      0   0   0   0   0   
      0   0   0   0   0   
      0.0847499580434   0.0847520476793   0.0847583073814   0.0847687095154   0.0847832079645   
      0.0848017380455   0.0848242163982   0.0848505408585   0.0848805903238   0.084914224626   
      0.084951284425   0.0849915911412   0.0850349469464   0.0850811348333   0.0851299187868   
      0.0851810440797   0.0852342377181   0.0852892090592   0.0853456506248   0.0854032391331   
      0.0854616367674   0.0855204926972   0.0855794448642   0.0856381220388   0.0856961461485   
      0.0857531348701   0.0858087044722   0.0858624728868   0.085914062977   0.0859631059648   
      0.0860092449708   0.0860521386135   0.0860914646079   0.0861269233003   0.0861582410722   
      0.0861851735451   0.0862075085201   0.0862250685884   0.0862377133552   0.0862453412255   
      0.0862478907108   0.0862453412255   0.0862377133552   0.0862250685884   0.0862075085201   
      0.0861851735451   0.0861582410722   0.0861269233003   0.0860914646079   0.0860521386135   
      0.0860092449708   0.0859631059648   0.085914062977   0.0858624728868   0.0858087044722   
      0.0857531348701   0.0856961461485   0.0856381220388   0.0855794448642   0.0855204926972   
      0.0854616367674   0.0854032391331   0.0853456506248   0.0852892090592   0.0852342377181   
      0.0851810440797   0.0851299187868   0.0850811348333   0.0850349469464   0.0849915911412   
      0.084951284425   0.084914224626   0.0848805903238   0.0848505408585   0.0848242163982   
      0.0848017380455   0.0847832079645   0.0847687095154   0.0847583073814   0.0847520476793   
      0.0937923591158   0.0937953611755   0.093804354224   0.0938192988405   0.0938401292293   
      0.0938667530857   0.0938990514187   0.0939368783457   0.0939800608728   0.0940283986812   
      0.0940816639415   0.0941396011817   0.0942019272373   0.0942683313155   0.0943384752047   
      0.0944119936661   0.0944884950413   0.094567562112   0.0946487532458   0.0947316038595   
      0.0948156282292   0.0949003216692   0.0949851630982   0.0950696180012   0.0951531417875   
      0.0952351835359   0.0953151901049   0.0953926105764   0.0954669009884   0.0955375292989   
      0.0956039805153   0.09566576191   0.0957224082364   0.0957734868523   0.0958186026536   
      0.09585740272   0.0958895805754   0.0959148799718   0.0959330981124   0.0959440882393   
      0.0959477615275   0.0959440882393   0.0959330981124   0.0959148799718   0.0958895805754   
      0.09585740272   0.0958186026536   0.0957734868523   0.0957224082364   0.09566576191   
      0.0956039805153   0.0955375292989   0.0954669009884   0.0953926105764   0.0953151901049   
      0.0952351835359   0.0951531417875   0.0950696180012   0.0949851630982   0.0949003216692   
      0.0948156282292   0.0947316038595   0.0946487532458   0.094567562112   0.0944884950413   
      0.0944119936661   0.0943384752047   0.0942683313155   0.0942019272373   0.0941396011817   
      0.0940816639415   0.0940283986812   0.0939800608728   0.0939368783457   0.0938990514187   
      0.0938667530857   0.0938401292293   0.0938192988405   0.093804354224   0.0937953611755   
      0.109479176354   0.109484086666   0.109498796231   0.10952324088   0.1095573135   
      0.109600863793   0.109653697964   0.109715578349   0.109786223024   0.109865305411   
      0.109952453936   0.110047251768   0.110149236692   0.110257901177   0.110372692678   
      0.110493014245   0.11061822549   0.110747643975   0.110880547072   0.111016174357   
      0.111153730576   0.111292389222   0.111431296754   0.111569577476   0.111706339056   
      0.1118406787   0.111971689909   0.112098469791   0.112220126845   0.112335789115   
      0.112444612614   0.112545789882   0.11263855854   0.112722209684   0.112796095967   
      0.112859639196   0.112912337305   0.112953770537   0.11298360671   0.113001605447   
      0.113007621261   0.113001605447   0.11298360671   0.112953770537   0.112912337305   
      0.112859639196   0.112796095967   0.112722209684   0.11263855854   0.112545789882   
      0.112444612614   0.112335789115   0.112220126845   0.112098469791   0.111971689909   
      0.1118406787   0.111706339056   0.111569577476   0.111431296754   0.111292389222   
      0.111153730576   0.111016174357   0.110880547072   0.110747643975   0.11061822549   
      0.110493014245   0.110372692678   0.110257901177   0.110149236692   0.110047251768   
      0.109952453936   0.109865305411   0.109786223024   0.109715578349   0.109653697964   
      0.109600863793   0.1095573135   0.10952324088   0.109498796231   0.109484086666   
      0.122764988953   0.122771951235   0.122792807681   0.122827467016   0.122875776879   
      0.122937523479   0.123012431154   0.123100161847   0.123200314549   0.123312424754   
      0.123435963983   0.123570339434   0.123714893832   0.123868905556   0.124031589118   
      0.124202096079   0.124379516489   0.124562880925   0.124751163211   0.124943283904   
      0.125138114577   0.125334482992   0.125531179159   0.125726962321   0.125920568849   
      0.126110721024   0.126296136642   0.126475539369   0.126647669731   0.126811296613   
      0.126965229094   0.127108328452   0.127239520134   0.127357805481   0.127462272989   
      0.127552108885   0.127626606815   0.127685176419   0.127727350636   0.127752791549   
      0.127761294672   0.127752791549   0.127727350636   0.127685176419   0.127626606815   
      0.127552108885   0.127462272989   0.127357805481   0.127239520134   0.127108328452   
      0.126965229094   0.126811296613   0.126647669731   0.126475539369   0.126296136642   
      0.126110721024   0.125920568849   0.125726962321   0.125531179159   0.125334482992   
      0.125138114577   0.124943283904   0.124751163211   0.124562880925   0.124379516489   
      0.124202096079   0.124031589118   0.123868905556   0.123714893832   0.123570339434   
      0.123435963983   0.123312424754   0.123200314549   0.123100161847   0.123012431154   
      0.122937523479   0.122875776879   0.122827467016   0.122792807681   0.122771951235   
      0.135299554762   0.135308554836   0.135335515417   0.135380317484   0.135442762383   
      0.135522571399   0.135619385217   0.135732763285   0.135862183156   0.136007039842   
      0.136166645286   0.136340228003   0.136526933007   0.136725822098   0.136935874638   
      0.13715598889   0.137384984059   0.13762160311   0.137864516482   0.138112326773   
      0.138363574477   0.138616744827   0.138870275789   0.139122567204   0.139371991077   
      0.139616902958   0.139855654345   0.140086605986   0.140308141946   0.140518684266   
      0.140716708   0.14090075641   0.141069456071   0.141221531621   0.141355819892   
      0.14147128315   0.141567021186   0.141642282008   0.141696470929   0.141729157837   
      0.141740082508   0.141729157837   0.141696470929   0.141642282008   0.141567021186   
      0.14147128315   0.141355819892   0.141221531621   0.141069456071   0.14090075641   
      0.140716708   0.140518684266   0.140308141946   0.140086605986   0.139855654345   
      0.139616902958   0.139371991077   0.139122567204   0.138870275789   0.138616744827   
      0.138363574477   0.138112326773   0.137864516482   0.13762160311   0.137384984059   
      0.13715598889   0.136935874638   0.136725822098   0.136526933007   0.136340228003   
      0.136166645286   0.136007039842   0.135862183156   0.135732763285   0.135619385217   
      0.135522571399   0.135442762383   0.135380317484   0.135335515417   0.135308554836   
      0.146143286461   0.146154033414   0.146186226358   0.146239721447   0.146314278617   
      0.14640956113   0.146525134988   0.146660468264   0.146814930406   0.146987791611   
      0.147178222329   0.147385293023   0.147607974267   0.147845137326   0.148095555311   
      0.148357905052   0.148630769806   0.148912642911   0.149201932509   0.149496967422   
      0.149796004272   0.150097235887   0.150398801048   0.150698795561   0.150995284629   
      0.151286316463   0.151569937025   0.15184420577   0.152107212201   0.152357093047   
      0.152592049802   0.152810366383   0.153010426613   0.153190731231   0.153349914135   
      0.153486757562   0.153600205902   0.153689377903   0.15375357701   0.153792299626   
      0.153805241146   0.153792299626   0.15375357701   0.153689377903   0.153600205902   
      0.153486757562   0.153349914135   0.153190731231   0.153010426613   0.152810366383   
      0.152592049802   0.152357093047   0.152107212201   0.15184420577   0.151569937025   
      0.151286316463   0.150995284629   0.150698795561   0.150398801048   0.150097235887   
      0.149796004272   0.149496967422   0.149201932509   0.148912642911   0.148630769806   
      0.148357905052   0.148095555311   0.147845137326   0.147607974267   0.147385293023   
      0.147178222329   0.146987791611   0.146814930406   0.146660468264   0.146525134988   
      0.14640956113   0.146314278617   0.146239721447   0.146186226358   0.146154033414   
      0.154652270321   0.154664341778   0.154700501651   0.154760586347   0.154844322886   
      0.154951328452   0.155081109804   0.155233062634   0.155406470917   0.15560050636   
      0.155814228028   0.156046582284   0.15629640314   0.156562413157   0.156843225039   
      0.157137344033   0.157443171287   0.157759008279   0.158083062442   0.158413454078   
      0.158748224639   0.159085346436   0.159422733786   0.159758255608   0.160089749395   
      0.160415036512   0.160731938662   0.161038295386   0.16133198238   0.161610930409   
      0.161873144542   0.16211672344   0.162339878373   0.162540951669   0.162718434263   
      0.162870982058   0.162997430774   0.163096809033   0.163168349422   0.163211497328   
      0.163225917373   0.163211497328   0.163168349422   0.163096809033   0.162997430774   
      0.162870982058   0.162718434263   0.162540951669   0.162339878373   0.16211672344   
      0.161873144542   0.161610930409   0.16133198238   0.161038295386   0.160731938662   
      0.160415036512   0.160089749395   0.159758255608   0.159422733786   0.159085346436   
      0.158748224639   0.158413454078   0.158083062442   0.157759008279   0.157443171287   
      0.157137344033   0.156843225039   0.156562413157   0.15629640314   0.156046582284   
      0.155814228028   0.15560050636   0.155406470917   0.155233062634   0.155081109804   
      0.154951328452   0.154844322886   0.154760586347   0.154700501651   0.154664341778   
      0.160430379057   0.160443315443   0.160482065604   0.160546452461   0.160636180566   
      0.160750835672   0.160889884175   0.161052672522   0.161238426628   0.161446251424   
      0.161675130627   0.16192392685   0.162191382192   0.162476119437   0.162776644001   
      0.163091346769   0.163418507966   0.163756302185   0.164102804681   0.164455999048   
      0.164813786336   0.165173995663   0.165534396341   0.165892711482   0.166246633043   
      0.166593838204   0.166932006929   0.167258840556   0.167572081182   0.167869531599   
      0.16814907551   0.168408697732   0.168646504049   0.168860740425   0.169049811235   
      0.169212296208   0.169346965789   0.169452794637   0.169528973028   0.169574915946   
      0.169590269701   0.169574915946   0.169528973028   0.169452794637   0.169346965789   
      0.169212296208   0.169049811235   0.168860740425   0.168646504049   0.168408697732   
      0.16814907551   0.167869531599   0.167572081182   0.167258840556   0.166932006929   
      0.166593838204   0.166246633043   0.165892711482   0.165534396341   0.165173995663   
      0.164813786336   0.164455999048   0.164102804681   0.163756302185   0.163418507966   
      0.163091346769   0.162776644001   0.162476119437   0.162191382192   0.16192392685   
      0.161675130627   0.161446251424   0.161238426628   0.161052672522   0.160889884175   
      0.160750835672   0.160636180566   0.160546452461   0.160482065604   0.160443315443   
      0.163333866477   0.163347224819   0.163387238582   0.163453723891   0.163546373985   
      0.163664758795   0.16380832442   0.163976392561   0.164168159996   0.164382698191   
      0.164618953156   0.164875745669   0.165151772007   0.165445605314   0.165755697752   
      0.166080383591   0.16641788335   0.166766309155   0.167123671393   0.167487886785   
      0.167856787939   0.168228134427   0.168599625399   0.168968913702   0.169333621443   
      0.169691356891   0.170039732565   0.17037638433   0.170698991267   0.171005296077   
      0.17129312573   0.171560412047   0.171805211921   0.172025726831   0.17222032134   
      0.172387540267   0.17252612423   0.172635023302   0.17271340852   0.17276068107   
      0.17277647896   0.17276068107   0.17271340852   0.172635023302   0.17252612423   
      0.172387540267   0.17222032134   0.172025726831   0.171805211921   0.171560412047   
      0.17129312573   0.171005296077   0.170698991267   0.17037638433   0.170039732565   
      0.169691356891   0.169333621443   0.168968913702   0.168599625399   0.168228134427   
      0.167856787939   0.167487886785   0.167123671393   0.166766309155   0.16641788335   
      0.166080383591   0.165755697752   0.165445605314   0.165151772007   0.164875745669   
      0.164618953156   0.164382698191   0.164168159996   0.163976392561   0.16380832442   
      0.163664758795   0.163546373985   0.163453723891   0.163387238582   0.163347224819   
      0.163333866477   0.163347224819   0.163387238582   0.163453723891   0.163546373985   
      0.163664758795   0.16380832442   0.163976392561   0.164168159996   0.164382698191   
      0.164618953156   0.164875745669   0.165151772007   0.165445605314   0.165755697752   
      0.166080383591   0.16641788335   0.166766309155   0.167123671393   0.167487886785   
      0.167856787939   0.168228134427   0.168599625399   0.168968913702   0.169333621443   
      0.169691356891   0.170039732565   0.17037638433   0.170698991267   0.171005296077   
      0.17129312573   0.171560412047   0.171805211921   0.172025726831   0.17222032134   
      0.172387540267   0.17252612423   0.172635023302   0.17271340852   0.17276068107   
      0.17277647896   0.17276068107   0.17271340852   0.172635023302   0.17252612423   
      0.172387540267   0.17222032134   0.172025726831   0.171805211921   0.171560412047   
      0.17129312573   0.171005296077   0.170698991267   0.17037638433   0.170039732565   
      0.169691356891   0.169333621443   0.168968913702   0.168599625399   0.168228134427   
      0.167856787939   0.167487886785   0.167123671393   0.166766309155   0.16641788335   
      0.166080383591   0.165755697752   0.165445605314   0.165151772007   0.164875745669   
      0.164618953156   0.164382698191   0.164168159996   0.163976392561   0.16380832442   
      0.163664758795   0.163546373985   0.163453723891   0.163387238582   0.163347224819   
      0.160430379057   0.160443315443   0.160482065604   0.160546452461   0.160636180566   
      0.160750835672   0.160889884175   0.161052672522   0.161238426628   0.161446251424   
      0.161675130627   0.16192392685   0.162191382192   0.162476119437   0.162776644001   
      0.163091346769   0.163418507966   0.163756302185   0.164102804681   0.164455999048   
      0.164813786336   0.165173995663   0.165534396341   0.165892711482   0.166246633043   
      0.166593838204   0.166932006929   0.167258840556   0.167572081182   0.167869531599   
      0.16814907551   0.168408697732   0.168646504049   0.168860740425   0.169049811235   
      0.169212296208   0.169346965789   0.169452794637   0.169528973028   0.169574915946   
      0.169590269701   0.169574915946   0.169528973028   0.169452794637   0.169346965789   
      0.169212296208   0.169049811235   0.168860740425   0.168646504049   0.168408697732   
      0.16814907551   0.167869531599   0.167572081182   0.167258840556   0.166932006929   
      0.166593838204   0.166246633043   0.165892711482   0.165534396341   0.165173995663   
      0.164813786336   0.164455999048   0.164102804681   0.163756302185   0.163418507966   
      0.163091346769   0.162776644001   0.162476119437   0.162191382192   0.16192392685   
      0.161675130627   0.161446251424   0.161238426628   0.161052672522   0.160889884175   
      0.160750835672   0.160636180566   0.160546452461   0.160482065604   0.160443315443   
      0.154652270321   0.154664341778   0.154700501651   0.154760586347   0.154844322886   
      0.154951328452   0.155081109804   0.155233062634   0.155406470917   0.15560050636   
      0.155814228028   0.156046582284   0.15629640314   0.156562413157   0.156843225039   
      0.157137344033   0.157443171287   0.157759008279   0.158083062442   0.158413454078   
      0.158748224639   0.159085346436   0.159422733786   0.159758255608   0.160089749395   
      0.160415036512   0.160731938662   0.161038295386   0.16133198238   0.161610930409   
      0.161873144542   0.16211672344   0.162339878373   0.162540951669   0.162718434263   
      0.162870982058   0.162997430774   0.163096809033   0.163168349422   0.163211497328   
      0.163225917373   0.163211497328   0.163168349422   0.163096809033   0.162997430774   
      0.162870982058   0.162718434263   0.162540951669   0.162339878373   0.16211672344   
      0.161873144542   0.161610930409   0.16133198238   0.161038295386   0.160731938662   
      0.160415036512   0.160089749395   0.159758255608   0.159422733786   0.159085346436   
      0.158748224639   0.158413454078   0.158083062442   0.157759008279   0.157443171287   
      0.157137344033   0.156843225039   0.156562413157   0.15629640314   0.156046582284   
      0.155814228028   0.15560050636   0.155406470917   0.155233062634   0.155081109804   
      0.154951328452   0.154844322886   0.154760586347   0.154700501651   0.154664341778   
      0.146143286461   0.146154033414   0.146186226358   0.146239721447   0.146314278617   
      0.14640956113   0.146525134988   0.146660468264   0.146814930406   0.146987791611   
      0.147178222329   0.147385293023   0.147607974267   0.147845137326   0.148095555311   
      0.148357905052   0.148630769806   0.148912642911   0.149201932509   0.149496967422   
      0.149796004272   0.150097235887   0.150398801048   0.150698795561   0.150995284629   
      0.151286316463   0.151569937025   0.15184420577   0.152107212201   0.152357093047   
      0.152592049802   0.152810366383   0.153010426613   0.153190731231   0.153349914135   
      0.153486757562   0.153600205902   0.153689377903   0.15375357701   0.153792299626   
      0.153805241146   0.153792299626   0.15375357701   0.153689377903   0.153600205902   
      0.153486757562   0.153349914135   0.153190731231   0.153010426613   0.152810366383   
      0.152592049802   0.152357093047   0.152107212201   0.15184420577   0.151569937025   
      0.151286316463   0.150995284629   0.150698795561   0.150398801048   0.150097235887   
      0.149796004272   0.149496967422   0.149201932509   0.148912642911   0.148630769806   
      0.148357905052   0.148095555311   0.147845137326   0.147607974267   0.147385293023   
      0.147178222329   0.146987791611   0.146814930406   0.146660468264   0.146525134988   
      0.14640956113   0.146314278617   0.146239721447   0.146186226358   0.146154033414   
      0.135299554762   0.135308554836   0.135335515417   0.135380317484   0.135442762383   
      0.135522571399   0.135619385217   0.135732763285   0.135862183156   0.136007039842   
      0.136166645286   0.136340228003   0.136526933007   0.136725822098   0.136935874638   
      0.13715598889   0.137384984059   0.13762160311   0.137864516482   0.138112326773   
      0.138363574477   0.138616744827   0.138870275789   0.139122567204   0.139371991077   
      0.139616902958   0.139855654345   0.140086605986   0.140308141946   0.140518684266   
      0.140716708   0.14090075641   0.141069456071   0.141221531621   0.141355819892   
      0.14147128315   0.141567021186   0.141642282008   0.141696470929   0.141729157837   
      0.141740082508   0.141729157837   0.141696470929   0.141642282008   0.141567021186   
      0.14147128315   0.141355819892   0.141221531621   0.141069456071   0.14090075641   
      0.140716708   0.140518684266   0.140308141946   0.140086605986   0.139855654345   
      0.139616902958   0.139371991077   0.139122567204   0.138870275789   0.138616744827   
      0.138363574477   0.138112326773   0.137864516482   0.13762160311   0.137384984059   
      0.13715598889   0.136935874638   0.136725822098   0.136526933007   0.136340228003   
      0.136166645286   0.136007039842   0.135862183156   0.135732763285   0.135619385217   