<?xml version="1.0"?>
<VTKFile type="ImageData" version="0.1" byte_order="LittleEndian">
  <ImageData WholeExtent="0 79 0 19 0 19" Origin="0 0 0" Spacing="1 1 1">
  <Piece Extent="0 79 0 19 0 19">
    <PointData Scalars="density">
       <DataArray type="Float32" Name="reddensity" NumberOfComponents="1" format="ascii">
      0   0   0   0   0   
      0   0   0   0   0   
      0   0   0   0   0   
      0   0   0   0   0   
      0   0   0   0   0   
      0   0   0   0   0   
      0   0   0   0   0   
      0   0   0   0   0   
      0   0   0   0   0   
      0   0   0   0   0   
      0   0   0   0   0   
      0   0   0   0   0   
      0   0   0   0   0   
      0   0   0   0   0   
      0   0   0   0   0   
      0   0   0   0   0   
      0   0   0   0   0   
      0   0   0   0   0   
      0   0   0   0   0   
      0   0   0   0   0   
      0   0   0   0   0   
      0   0   0   0   0   
      0   0   0   0   0   
      0   0   0   0   0   
      0   0   0   0   0   
      0   0   0   0   0   
      0   0   0   0   0   
      0   0   0   0   0   
      0   0   0   0   0   
      0   0   0   0   0   
      0   0   0   0   0   
      0   0   0   0   0   
      0   0   0   0   0   
      0   0   0   0   0   
      0   0   0   0   0   
      0   0   0   0   0   
      0   0   0   0   0   
      0   0   0   0   0   
      0   0   0   0   0   
      0   0   0   0   0   
      0   0   0   0   0   
      0   0   0   0   0   
      0   0   0   0   0   
      0   0   0   0   0   
      0   0   0   0   0   
      0   0   0   0   0   
      0   0   0   0   0   
      0   0   0   0   0   
      0   0   0   0   0   
      0   0   0   0   0   
      0   0   0   0   0   
      0   0   0   0   0   
      0   0   0   0   0   
      0   0   0   0   0   
      0   0   0   0   0   
      0   0   0   0   0   
      0   0   0   0   0   
      0   0   0   0   0   
      0   0   0   0   0   
      0   0   0   0   0   
      0   0   0   0   0   
      0   0   0   0   0   
      0   0   0   0   0   
      0   0   0   0   0   
      0   0   0   0   0   
      0   0   0   0   0   
      0   0   0   0   0   
      0   0   0   0   0   
      0   0   0   0   0   
      0   0   0   0   0   
      0   0   0   0   0   
      0   0   0   0   0   
      0   0   0   0   0   
      0   0   0   0   0   
      0   0   0   0   0   
      0   0   0   0   0   
      0   0   0   0   0   
      0   0   0   0   0   
      0   0   0   0   0   
      0   0   0   0   0   
      0   0   0   0   0   
      0   0   0   0   0   
      0   0   0   0   0   
      0   0   0   0   0   
      0   0   0   0   0   
      0   0   0   0   0   
      0   0   0   0   0   
      0   0   0   0   0   
      0   0   0   0   0   
      0   0   0   0   0   
      0   0   0   0   0   
      0   0   0   0   0   
      0   0   0   0   0   
      0   0   0   0   0   
      0   0   0   0   0   
      0   0   0   0   0   
      0   0   0   0   0   
      0   0   0   0   0   
      0   0   0   0   0   
      0   0   0   0   0   
      0   0   0   0   0   
      0   0   0   0   0   
      0   0   0   0   0   
      0   0   0   0   0   
      0   0   0   0   0   
      0   0   0   0   0   
      0   0   0   0   0   
      0   0   0   0   0   
      0   0   0   0   0   
      0   0   0   0   0   
      0   0   0   0   0   
      0   0   0   0   0   
      0   0   0   0   0   
      0   0   0   0   0   
      0   0   0   0   0   
      0   0   0   0   0   
      0   0   0   0   0   
      0   0   0   0   0   
      0   0   0   0   0   
      0   0   0   0   0   
      0   0   0   0   0   
      0   0   0   0   0   
      0   0   0   0   0   
      0   0   0   0   0   
      0   0   0   0   0   
      0   0   0   0   0   
      0   0   0   0   0   
      0   0   0   0   0   
      0   0   0   0   0   
      0   0   0   0   0   
      0   0   0   0   0   
      0   0   0   0   0   
      0   0   0   0   0   
      0   0   0   0   0   
      0   0   0   0   0   
      0   0   0   0   0   
      0   0   0   0   0   
      0   0   0   0   0   
      0   0   0   0   0   
      0   0   0   0   0   
      0   0   0   0   0   
      0   0   0   0   0   
      0   0   0   0   0   
      0   0   0   0   0   
      0   0   0   0   0   
      0   0   0   0   0   
      0   0   0   0   0   
      0   0   0   0   0   
      0   0   0   0   0   
      0   0   0   0   0   
      0   0   0   0   0   
      0   0   0   0   0   
      0   0   0   0   0   
      0   0   0   0   0   
      0   0   0   0   0   
      0   0   0   0   0   
      0   0   0   0   0   
      0   0   0   0   0   
      0   0   0   0   0   
      0   0   0   0   0   
      0   0   0   0   0   
      0   0   0   0   0   
      0   0   0   0   0   
      0   0   0   0   0   
      0   0   0   0   0   
      0   0   0   0   0   
      0   0   0   0   0   
      0   0   0   0   0   
      0   0   0   0   0   
      0   0   0   0   0   
      0   0   0   0   0   
      0   0   0   0   0   
      0   0   0   0   0   
      0   0   0   0   0   
      0   0   0   0   0   
      0   0   0   0   0   
      0   0   0   0   0   
      0   0   0   0   0   
      0   0   0   0   0   
      0   0   0   0   0   
      0   0   0   0   0   
      0   0   0   0   0   
      0   0   0   0   0   
      0   0   0   0   0   
      0   0   0   0   0   
      0   0   0   0   0   
      0   0   0   0   0   
      0   0   0   0   0   
      0   0   0   0   0   
      0   0   0   0   0   
      0   0   0   0   0   
      0   0   0   0   0   
      0   0   0   0   0   
      0   0   0   0   0   
      0   0   0   0   0   
      0   0   0   0   0   
      0   0   0   0   0   
      0   0   0   0   0   
      0   0   0   0   0   
      0   0   0   0   0   
      0   0   0   0   0   
      0   0   0   0   0   
      0   0   0   0   0   
      0   0   0   0   0   
      0   0   0   0   0   
      0   0   0   0   0   
      0   0   0   0   0   
      0   0   0   0   0   
      0   0   0   0   0   
      0   0   0   0   0   
      0   0   0   0   0   
      0   0   0   0   0   
      0   0   0   0   0   
      0   0   0   0   0   
      0   0   0   0   0   
      0   0   0   0   0   
      0   0   0   0   0   
      0   0   0   0   0   
      0   0   0   0   0   
      0   0   0   0   0   
      0   0   0   0   0   
      0   0   0   0   0   
      0   0   0   0   0   
      0   0   0   0   0   
      0   0   0   0   0   
      0   0   0   0   0   
      0   0   0   0   0   
      0   0   0   0   0   
      0   0   0   0   0   
      0   0   0   0   0   
      0   0   0   0   0   
      0   0   0   0   0   
      0   0   0   0   0   
      0   0   0   0   0   
      0   0   0   0   0   
      0   0   0   0   0   
      0   0   0   0   0   
      0   0   0   0   0   
      0   0   0   0   0   
      0   0   0   0   0   
      0   0   0   0   0   
      0   0   0   0   0   
      0   0   0   0   0   
      0   0   0   0   0   
      0   0   0   0   0   
      0   0   0   0   0   
      0   0   0   0   0   
      0   0   0   0   0   
      0   0   0   0   0   
      0   0   0   0   0   
      0   0   0   0   0   
      0   0   0   0   0   
      0   0   0   0   0   
      0   0   0   0   0   
      0   0   0   0   0   
      0   0   0   0   0   
      0   0   0   0   0   
      0   0   0   0   0   
      0   0   0   0   0   
      0   0   0   0   0   
      0   0   0   0   0   
      0   0   0   0   0   
      0   0   0   0   0   
      0   0   0   0   0   
      0   0   0   0   0   
      0   0   0   0   0   
      0   0   0   0   0   
      0   0   0   0   0   
      0   0   0   0   0   
      0   0   0   0   0   
      0   0   0   0   0   
      0   0   0   0   0   
      0   0   0   0   0   
      0   0   0   0   0   
      0   0   0   0   0   
      0   0   0   0   0   
      0   0   0   0   0   
      0   0   0   0   0   
      0   0   0   0   0   
      0   0   0   0   0   
      0   0   0   0   0   
      0   0   0   0   0   
      0   0   0   0   0   
      0   0   0   0   0   
      0   0   0   0   0   
      0   0   0   0   0   
      0   0   0   0   0   
      0   0   0   0   0   
      0   0   0   0   0   
      0   0   0   0   0   
      0   0   0   0   0   
      0   0   0   0   0   
      0   0   0   0   0   
      0   0   0   0   0   
      0   0   0   0   0   
      0   0   0   0   0   
      0   0   0   0   0   
      0   0   0   0   0   
      0   0   0   0   0   
      0   0   0   0   0   
      0   0   0   0   0   
      0   0   0   0   0   
      0   0   0   0   0   
      0   0   0   0   0   
      0   0   0   0   0   
      0   0   0   0   0   
      0   0   0   0   0   
      0   0   0   0   0   
      0   0   0   0   0   
      0   0   0   0   0   
      0   0   0   0   0   
      0   0   0   0   0   
      0   0   0   0   0   
      0   0   0   0   0   
      0   0   0   0   0   
      0   0   0   0   0   
      0   0   0   0   0   
      0   0   0   0   0   
      0   0   0   0   0   
      0   0   0   0   0   
      0   0   0   0   0   
      0   0   0   0   0   
      0   0   0   0   0   
      0   0   0   0   0   
      0   0   0   0   0   
      0   0   0   0   0   
      0   0   0   0   0   
      0   0   0   0   0   
      0   0   0   0   0   
      0   0   0   0   0   
      0   0   0   0   0   
      0   0   0   0   0   
      0   0   0   0   0   
      0   0   0   0   0   
      0   0   0   0   0   
      0   0   0   0   0   
      0.0819084337093   0.0819168395958   0.0819420689239   0.081984156434   0.0820431591223   
      0.0821191548089   0.0822122399782   0.0823225267369   0.0824501386834   0.0825952054332   
      0.0827578554993   0.0829382071823   0.0831363570952   0.0833523659326   0.0835862411136   
      0.0838379159761   0.0841072253103   0.0843938771796   0.0846974212145   0.0850172138687   
      0.0853523814981   0.0857017825489   0.0860639705842   0.08643716032   0.086819199208   
      0.0872075473656   0.0875992687406   0.0879910362666   0.0883791533888   0.0887595936995   
      0.0891280595376   0.089480059323   0.0898110021883   0.0901163072166   0.0903915234206   
      0.0906324555867   0.0908352903694   0.0909967166223   0.0911140339451   0.0911852438176   
      0.0912091184781   0.0911852438176   0.0911140339451   0.0909967166223   0.0908352903694   
      0.0906324555867   0.0903915234206   0.0901163072166   0.0898110021883   0.089480059323   
      0.0891280595376   0.0887595936995   0.0883791533888   0.0879910362666   0.0875992687406   
      0.0872075473656   0.086819199208   0.08643716032   0.0860639705842   0.0857017825489   
      0.0853523814981   0.0850172138687   0.0846974212145   0.0843938771796   0.0841072253103   
      0.0838379159761   0.0835862411136   0.0833523659326   0.0831363570952   0.0829382071823   
      0.0827578554993   0.0825952054332   0.0824501386834   0.0823225267369   0.0822122399782   
      0.0821191548089   0.0820431591223   0.081984156434   0.0819420689239   0.0819168395958   
      0.0896955159271   0.0897074412833   0.0897432370917   0.0898029621632   0.0898867131223   
      0.0899946222023   0.0901268539285   0.0902836004531   0.0904650752367   0.090671504695   
      0.0909031173637   0.091160130072   0.0914427305713   0.0917510560527   0.0920851670145   
      0.0924450160242   0.0928304110874   0.0932409735834   0.0936760910849   0.0941348658392   
      0.0946160602416   0.095118041261   0.0956387264321   0.0961755346585   0.096725345591   
      0.0972844716903   0.0978486471543   0.098413037636   0.0989722740518   0.0995205127764   
      0.100051523173   0.100558801812   0.101035710968   0.10147563725   0.101872164603   
      0.102219254601   0.102511426046   0.102743925471   0.102912880251   0.10301542667   
      0.103049806437   0.10301542667   0.102912880251   0.102743925471   0.102511426046   
      0.102219254601   0.101872164603   0.10147563725   0.101035710968   0.100558801812   
      0.100051523173   0.0995205127764   0.0989722740518   0.098413037636   0.0978486471543   
      0.0972844716903   0.096725345591   0.0961755346585   0.0956387264321   0.095118041261   
      0.0946160602416   0.0941348658392   0.0936760910849   0.0932409735834   0.0928304110874   
      0.0924450160242   0.0920851670145   0.0917510560527   0.0914427305713   0.091160130072   
      0.0909031173637   0.090671504695   0.0904650752367   0.0902836004531   0.0901268539285   
      0.0899946222023   0.0898867131223   0.0898029621632   0.0897432370917   0.0897074412833   
      0.102750239485   0.102769512066   0.10282736708   0.102923915609   0.103059340283   
      0.103233891323   0.1034478806   0.103701673288   0.103995676596   0.104330324909   
      0.104706060575   0.105123309471   0.105582450423   0.106083777538   0.106627454583   
      0.107213460729   0.10784152727   0.108511065415   0.109221085882   0.109970111856   
      0.11075608783   0.111576287908   0.112427228254   0.113304589319   0.114203154266   
      0.11511677035   0.116038339927   0.116959847022   0.117872424065   0.118766461494   
      0.119631760512   0.120457726626   0.121233598874   0.121948707063   0.122592747254   
      0.123156064148   0.123629928217   0.12400679531   0.124280537122   0.12444663213   
      0.124502308442   0.12444663213   0.124280537122   0.12400679531   0.123629928217   
      0.123156064148   0.122592747254   0.121948707063   0.121233598874   0.120457726626   
      0.119631760512   0.118766461494   0.117872424065   0.116959847022   0.116038339927   
      0.11511677035   0.114203154266   0.113304589319   0.112427228254   0.111576287908   
      0.11075608783   0.109970111856   0.109221085882   0.108511065415   0.10784152727   
      0.107213460729   0.106627454583   0.106083777538   0.105582450423   0.105123309471   
      0.104706060575   0.104330324909   0.103995676596   0.103701673288   0.1034478806   
      0.103233891323   0.103059340283   0.102923915609   0.10282736708   0.102769512066   
      0.113168630762   0.113195844787   0.113277543461   0.113413895423   0.113605177755   
      0.113851769709   0.114154143304   0.114512850173   0.11492850385   0.11540175653   
      0.115933269146   0.116523673513   0.117173525217   0.117883245954   0.118653054184   
      0.11948288333   0.120372287245   0.121320333519   0.122325486213   0.123385480898   
      0.124497196334   0.125656528696   0.126858275661   0.128096038891   0.129362154153   
      0.130647658314   0.131942301662   0.133234612302   0.134512016811   0.135761018156   
      0.136967428249   0.138116648923   0.1391939918   0.140185024927   0.141075932328   
      0.141853871885   0.142507317219   0.143026370257   0.143403032875   0.143631427982   
      0.143707962638   0.143631427982   0.143403032875   0.143026370257   0.142507317219   
      0.141853871885   0.141075932328   0.140185024927   0.1391939918   0.138116648923   
      0.136967428249   0.135761018156   0.134512016811   0.133234612302   0.131942301662   
      0.130647658314   0.129362154153   0.128096038891   0.126858275661   0.125656528696   
      0.124497196334   0.123385480898   0.122325486213   0.121320333519   0.120372287245   
      0.11948288333   0.118653054184   0.117883245954   0.117173525217   0.116523673513   
      0.115933269146   0.11540175653   0.11492850385   0.114512850173   0.114154143304   
      0.113851769709   0.113605177755   0.113413895423   0.113277543461   0.113195844787   
      0.122809521374   0.122844750868   0.122950514621   0.123127036727   0.12337468486   
      0.123693961111   0.124085488304   0.124549990928   0.125088269566   0.1257011675   
      0.126389527966   0.127154140399   0.127995673988   0.128914596989   0.129911080551   
      0.130984886394   0.132135238591   0.133360680886   0.134658922587   0.136026677862   
      0.13745950527   0.138951656315   0.140495943443   0.142083639018   0.143704417   
      0.145346348173   0.146995957696   0.148638350482   0.150257405783   0.151836037676   
      0.153356513552   0.154800818632   0.156151051564   0.157389834497   0.158500720872   
      0.159468585294   0.160279981985   0.160923461052   0.161389834641   0.161672387662   
      0.161767029878   0.161672387662   0.161389834641   0.160923461052   0.160279981985   
      0.159468585294   0.158500720872   0.157389834497   0.156151051564   0.154800818632   
      0.153356513552   0.151836037676   0.150257405783   0.148638350482   0.146995957696   
      0.145346348173   0.143704417   0.142083639018   0.140495943443   0.138951656315   
      0.13745950527   0.136026677862   0.134658922587   0.133360680886   0.132135238591   
      0.130984886394   0.129911080551   0.128914596989   0.127995673988   0.127154140399   
      0.126389527966   0.1257011675   0.125088269566   0.124549990928   0.124085488304   
      0.123693961111   0.12337468486   0.123127036727   0.122950514621   0.122844750868   
      0.131117905973   0.131160198691   0.131287166895   0.131499078418   0.131796371789   
      0.132179643887   0.13264963156   0.133207186107   0.133853239217   0.134588758735   
      0.135414692364   0.136331897351   0.137341054225   0.138442562948   0.139636420333   
      0.140922078543   0.142298285728   0.143762911621   0.145312762948   0.146943395925   
      0.148648935457   0.150421912858   0.152253135431   0.154131601852   0.156044476503   
      0.157977133665   0.15991327867   0.16183514811   0.163723785436   0.165559382501   
      0.167321672578   0.168990356754   0.170545543876   0.171968184516   0.173240481555   
      0.174346263487   0.17527131077   0.176003629795   0.176533672764   0.176854504436   
      0.176961918223   0.176854504436   0.176533672764   0.176003629795   0.17527131077   
      0.174346263487   0.173240481555   0.171968184516   0.170545543876   0.168990356754   
      0.167321672578   0.165559382501   0.163723785436   0.16183514811   0.15991327867   
      0.157977133665   0.156044476503   0.154131601852   0.152253135431   0.150421912858   
      0.148648935457   0.146943395925   0.145312762948   0.143762911621   0.142298285728   
      0.140922078543   0.139636420333   0.138442562948   0.137341054225   0.136331897351   
      0.135414692364   0.134588758735   0.133853239217   0.133207186107   0.13264963156   
      0.132179643887   0.131796371789   0.131499078418   0.131287166895   0.131160198691   
      0.137657575695   0.13770540363   0.137848987492   0.138088624556   0.138424800446   
      0.138858173722   0.139389553001   0.140019865296   0.140750113961   0.141581324319   
      0.142514474866   0.143550411871   0.144689745373   0.14593272495   0.147279094491   
      0.148727926373   0.150277437185   0.151924789296   0.153665885143   0.155495163825   
      0.157405412299   0.159387605541   0.161430791283   0.163522034646   0.165646436068   
      0.167787232095   0.169925983135   0.172042845695   0.174116919654   0.17612665485   
      0.178050296463   0.179866346163   0.181554016063   0.183093654991   0.184467131105   
      0.185658160403   0.186652576569   0.18743854277   0.188006710007   0.188350328977   
      0.188465323044   0.188350328977   0.188006710007   0.18743854277   0.186652576569   
      0.185658160403   0.184467131105   0.183093654991   0.181554016063   0.179866346163   
      0.178050296463   0.17612665485   0.174116919654   0.172042845695   0.169925983135   
      0.167787232095   0.165646436068   0.163522034646   0.161430791283   0.159387605541   
      0.157405412299   0.155495163825   0.153665885143   0.151924789296   0.150277437185   
      0.148727926373   0.147279094491   0.14593272495   0.144689745373   0.143550411871   
      0.142514474866   0.141581324319   0.140750113961   0.140019865296   0.139389553001   
      0.138858173722   0.138424800446   0.138088624556   0.137848987492   0.13770540363   
      0.142119758107   0.142171320628   0.142326113962   0.14258445206   0.142946846763   
      0.143413989954   0.143986727108   0.14466602081   0.14545290244   0.146348409951   
      0.147353509478   0.148468998505   0.149695388577   0.1510327661   0.152480630807   
      0.154037712925   0.155701772142   0.157469383968   0.159335721986   0.161294347473   
      0.163337020595   0.165453549397   0.167631693476   0.16985713826   0.172113552732   
      0.174382738375   0.176644870355   0.178878824296   0.1810625744   0.18317364231   
      0.185189571938   0.187088404171   0.188849127057   0.190452081418   0.191879307982   
      0.193114829171   0.194144865377   0.194957991223   0.195545241139   0.19590017547   
      0.196018918192   0.19590017547   0.195545241139   0.194957991223   0.194144865377   
      0.193114829171   0.191879307982   0.190452081418   0.188849127057   0.187088404171   
      0.185189571938   0.18317364231   0.1810625744   0.178878824296   0.176644870355   
      0.174382738375   0.172113552732   0.16985713826   0.167631693476   0.165453549397   
      0.163337020595   0.161294347473   0.159335721986   0.157469383968   0.155701772142   
      0.154037712925   0.152480630807   0.1510327661   0.149695388577   0.148468998505   
      0.147353509478   0.146348409951   0.14545290244   0.14466602081   0.143986727108   
      0.143413989954   0.142946846763   0.14258445206   0.142326113962   0.142171320628   
      0.144370393777   0.144423822961   0.144584218756   0.14485190228   0.145227396442   
      0.145711406739   0.146304792842   0.14700852944   0.147823654504   0.148751202778   
      0.149792122186   0.150947170854   0.152216792744   0.153600970579   0.155099055852   
      0.156709577356   0.158430031894   0.160256663514   0.162184240659   0.164205843752   
      0.16631267843   0.168493931527   0.170736687303   0.173025919921   0.175344574491   
      0.177673743233   0.179992935857   0.182280435111   0.184513720563   0.186669937448   
      0.18872638369   0.190660987638   0.192452751739   0.194082142646   0.195531415346   
      0.196784866555   0.197829019726   0.198652749766   0.19924735923   0.199606619344   
      0.199726788597   0.199606619344   0.19924735923   0.198652749766   0.197829019726   
      0.196784866555   0.195531415346   0.194082142646   0.192452751739   0.190660987638   
      0.18872638369   0.186669937448   0.184513720563   0.182280435111   0.179992935857   
      0.177673743233   0.175344574491   0.173025919921   0.170736687303   0.168493931527   
      0.16631267843   0.164205843752   0.162184240659   0.160256663514   0.158430031894   
      0.156709577356   0.155099055852   0.153600970579   0.152216792744   0.150947170854   
      0.149792122186   0.148751202778   0.147823654504   0.14700852944   0.146304792842   
      0.145711406739   0.145227396442   0.14485190228   0.144584218756   0.144423822961   
      0.144370393777   0.144423822961   0.144584218756   0.14485190228   0.145227396442   
      0.145711406739   0.146304792842   0.14700852944   0.147823654504   0.148751202778   
      0.149792122186   0.150947170854   0.152216792744   0.153600970579   0.155099055852   
      0.156709577356   0.158430031894   0.160256663514   0.162184240659   0.164205843752   
      0.16631267843   0.168493931527   0.170736687303   0.173025919921   0.175344574491   
      0.177673743233   0.179992935857   0.182280435111   0.184513720563   0.186669937448   
      0.18872638369   0.190660987638   0.192452751739   0.194082142646   0.195531415346   
      0.196784866555   0.197829019726   0.198652749766   0.19924735923   0.199606619344   
      0.199726788597   0.199606619344   0.19924735923   0.198652749766   0.197829019726   
      0.196784866555   0.195531415346   0.194082142646   0.192452751739   0.190660987638   
      0.18872638369   0.186669937448   0.184513720563   0.182280435111   0.179992935857   
      0.177673743233   0.175344574491   0.173025919921   0.170736687303   0.168493931527   
      0.16631267843   0.164205843752   0.162184240659   0.160256663514   0.158430031894   
      0.156709577356   0.155099055852   0.153600970579   0.152216792744   0.150947170854   
      0.149792122186   0.148751202778   0.147823654504   0.14700852944   0.146304792842   
      0.145711406739   0.145227396442   0.14485190228   0.144584218756   0.144423822961   
      0.142119758107   0.142171320628   0.142326113962   0.14258445206   0.142946846763   
      0.143413989954   0.143986727108   0.14466602081   0.14545290244   0.146348409951   
      0.147353509478   0.148468998505   0.149695388577   0.1510327661   0.152480630807   
      0.154037712925   0.155701772142   0.157469383968   0.159335721986   0.161294347473   
      0.163337020595   0.165453549397   0.167631693476   0.16985713826   0.172113552732   
      0.174382738375   0.176644870355   0.178878824296   0.1810625744   0.18317364231   
      0.185189571938   0.187088404171   0.188849127057   0.190452081418   0.191879307982   
      0.193114829171   0.194144865377   0.194957991223   0.195545241139   0.19590017547   
      0.196018918192   0.19590017547   0.195545241139   0.194957991223   0.194144865377   
      0.193114829171   0.191879307982   0.190452081418   0.188849127057   0.187088404171   
      0.185189571938   0.18317364231   0.1810625744   0.178878824296   0.176644870355   
      0.174382738375   0.172113552732   0.16985713826   0.167631693476   0.165453549397   
      0.163337020595   0.161294347473   0.159335721986   0.157469383968   0.155701772142   
      0.154037712925   0.152480630807   0.1510327661   0.149695388577   0.148468998505   
      0.147353509478   0.146348409951   0.14545290244   0.14466602081   0.143986727108   
      0.143413989954   0.142946846763   0.14258445206   0.142326113962   0.142171320628   
      0.137657575695   0.13770540363   0.137848987492   0.138088624556   0.138424800446   
      0.138858173722   0.139389553001   0.140019865296   0.140750113961   0.141581324319   
      0.142514474866   0.143550411871   0.144689745373   0.14593272495   0.147279094491   
      0.148727926373   0.150277437185   0.151924789296   0.153665885143   0.155495163825   
      0.157405412299   0.159387605541   0.161430791283   0.163522034646   0.165646436068   
      0.167787232095   0.169925983135   0.172042845695   0.174116919654   0.17612665485   
      0.178050296463   0.179866346163   0.181554016063   0.183093654991   0.184467131105   
      0.185658160403   0.186652576569   0.18743854277   0.188006710007   0.188350328977   
      0.188465323044   0.188350328977   0.188006710007   0.18743854277   0.186652576569   
      0.185658160403   0.184467131105   0.183093654991   0.181554016063   0.179866346163   
      0.178050296463   0.17612665485   0.174116919654   0.172042845695   0.169925983135   
      0.167787232095   0.165646436068   0.163522034646   0.161430791283   0.159387605541   
      0.157405412299   0.155495163825   0.153665885143   0.151924789296   0.150277437185   
      0.148727926373   0.147279094491   0.14593272495   0.144689745373   0.143550411871   
      0.142514474866   0.141581324319   0.140750113961   0.140019865296   0.139389553001   
      0.138858173722   0.138424800446   0.138088624556   0.137848987492   0.13770540363   
      0.131117905973   0.131160198691   0.131287166895   0.131499078418   0.131796371789   
      0.132179643887   0.13264963156   0.133207186107   0.133853239217   0.134588758735   
      0.135414692364   0.136331897351   0.137341054225   0.138442562948   0.139636420333   
      0.140922078543   0.142298285728   0.143762911621   0.145312762948   0.146943395925   
      0.148648935457   0.150421912858   0.152253135431   0.154131601852   0.156044476503   
      0.157977133665   0.15991327867   0.16183514811   0.163723785436   0.165559382501   
      0.167321672578   0.168990356754   0.170545543876   0.171968184516   0.173240481555   
      0.174346263487   0.17527131077   0.176003629795   0.176533672764   0.176854504436   
      0.176961918223   0.176854504436   0.176533672764   0.176003629795   0.17527131077   
      0.174346263487   0.173240481555   0.171968184516   0.170545543876   0.168990356754   
      0.167321672578   0.165559382501   0.163723785436   0.16183514811   0.15991327867   
      0.157977133665   0.156044476503   0.154131601852   0.152253135431   0.150421912858   
      0.148648935457   0.146943395925   0.145312762948   0.143762911621   0.142298285728   
      0.140922078543   0.139636420333   0.138442562948   0.137341054225   0.136331897351   
      0.135414692364   0.134588758735   0.133853239217   0.133207186107   0.13264963156   
      0.132179643887   0.131796371789   0.131499078418   0.131287166895   0.131160198691   
      0.122809521374   0.122844750868   0.122950514621   0.123127036727   0.12337468486   
      0.123693961111   0.124085488304   0.124549990928   0.125088269566   0.1257011675   
      0.126389527966   0.127154140399   0.127995673988   0.128914596989   0.129911080551   
      0.130984886394   0.132135238591   0.133360680886   0.134658922587   0.136026677862   
      0.13745950527   0.138951656315   0.140495943443   0.142083639018   0.143704417   
      0.145346348173   0.146995957696   0.148638350482   0.150257405783   0.151836037676   
      0.153356513552   0.154800818632   0.156151051564   0.157389834497   0.158500720872   
      0.159468585294   0.160279981985   0.160923461052   0.161389834641   0.161672387662   
      0.161767029878   0.161672387662   0.161389834641   0.160923461052   0.160279981985   
      0.159468585294   0.158500720872   0.157389834497   0.156151051564   0.154800818632   
      0.153356513552   0.151836037676   0.150257405783   0.148638350482   0.146995957696   
      0.145346348173   0.143704417   0.142083639018   0.140495943443   0.138951656315   
      0.13745950527   0.136026677862   0.134658922587   0.133360680886   0.132135238591   
      0.130984886394   0.129911080551   0.128914596989   0.127995673988   0.127154140399   
      0.126389527966   0.1257011675   0.125088269566   0.124549990928   0.124085488304   
      0.123693961111   0.12337468486   0.123127036727   0.122950514621   0.122844750868   