<?xml version="1.0"?>
<VTKFile type="ImageData" version="0.1" byte_order="LittleEndian">
  <ImageData WholeExtent="0 79 0 19 0 19" Origin="0 0 0" Spacing="1 1 1">
  <Piece Extent="0 79 0 19 0 19">
    <PointData Scalars="density">
       <DataArray type="Float32" Name="reddensity" NumberOfComponents="1" format="ascii">
      0   0   0   0   0   
      0   0   0   0   0   
      0   0   0   0   0   
      0   0   0   0   0   
      0   0   0   0   0   
      0   0   0   0   0   
      0   0   0   0   0   
      0   0   0   0   0   
      0   0   0   0   0   
      0   0   0   0   0   
      0   0   0   0   0   
      0   0   0   0   0   
      0   0   0   0   0   
      0   0   0   0   0   
      0   0   0   0   0   
      0   0   0   0   0   
      0   0   0   0   0   
      0   0   0   0   0   
      0   0   0   0   0   
      0   0   0   0   0   
      0   0   0   0   0   
      0   0   0   0   0   
      0   0   0   0   0   
      0   0   0   0   0   
      0   0   0   0   0   
      0   0   0   0   0   
      0   0   0   0   0   
      0   0   0   0   0   
      0   0   0   0   0   
      0   0   0   0   0   
      0   0   0   0   0   
      0   0   0   0   0   
      0   0   0   0   0   
      0   0   0   0   0   
      0   0   0   0   0   
      0   0   0   0   0   
      0   0   0   0   0   
      0   0   0   0   0   
      0   0   0   0   0   
      0   0   0   0   0   
      0   0   0   0   0   
      0   0   0   0   0   
      0   0   0   0   0   
      0   0   0   0   0   
      0   0   0   0   0   
      0   0   0   0   0   
      0   0   0   0   0   
      0   0   0   0   0   
      0   0   0   0   0   
      0   0   0   0   0   
      0   0   0   0   0   
      0   0   0   0   0   
      0   0   0   0   0   
      0   0   0   0   0   
      0   0   0   0   0   
      0   0   0   0   0   
      0   0   0   0   0   
      0   0   0   0   0   
      0   0   0   0   0   
      0   0   0   0   0   
      0   0   0   0   0   
      0   0   0   0   0   
      0   0   0   0   0   
      0   0   0   0   0   
      0   0   0   0   0   
      0   0   0   0   0   
      0   0   0   0   0   
      0   0   0   0   0   
      0   0   0   0   0   
      0   0   0   0   0   
      0   0   0   0   0   
      0   0   0   0   0   
      0   0   0   0   0   
      0   0   0   0   0   
      0   0   0   0   0   
      0   0   0   0   0   
      0   0   0   0   0   
      0   0   0   0   0   
      0   0   0   0   0   
      0   0   0   0   0   
      0   0   0   0   0   
      0   0   0   0   0   
      0   0   0   0   0   
      0   0   0   0   0   
      0   0   0   0   0   
      0   0   0   0   0   
      0   0   0   0   0   
      0   0   0   0   0   
      0   0   0   0   0   
      0   0   0   0   0   
      0   0   0   0   0   
      0   0   0   0   0   
      0   0   0   0   0   
      0   0   0   0   0   
      0   0   0   0   0   
      0   0   0   0   0   
      0   0   0   0   0   
      0   0   0   0   0   
      0   0   0   0   0   
      0   0   0   0   0   
      0   0   0   0   0   
      0   0   0   0   0   
      0   0   0   0   0   
      0   0   0   0   0   
      0   0   0   0   0   
      0   0   0   0   0   
      0   0   0   0   0   
      0   0   0   0   0   
      0   0   0   0   0   
      0   0   0   0   0   
      0   0   0   0   0   
      0   0   0   0   0   
      0   0   0   0   0   
      0   0   0   0   0   
      0   0   0   0   0   
      0   0   0   0   0   
      0   0   0   0   0   
      0   0   0   0   0   
      0   0   0   0   0   
      0   0   0   0   0   
      0   0   0   0   0   
      0   0   0   0   0   
      0   0   0   0   0   
      0   0   0   0   0   
      0   0   0   0   0   
      0   0   0   0   0   
      0   0   0   0   0   
      0   0   0   0   0   
      0   0   0   0   0   
      0   0   0   0   0   
      0   0   0   0   0   
      0   0   0   0   0   
      0   0   0   0   0   
      0   0   0   0   0   
      0   0   0   0   0   
      0   0   0   0   0   
      0   0   0   0   0   
      0   0   0   0   0   
      0   0   0   0   0   
      0   0   0   0   0   
      0   0   0   0   0   
      0   0   0   0   0   
      0   0   0   0   0   
      0   0   0   0   0   
      0   0   0   0   0   
      0   0   0   0   0   
      0   0   0   0   0   
      0   0   0   0   0   
      0   0   0   0   0   
      0   0   0   0   0   
      0   0   0   0   0   
      0   0   0   0   0   
      0   0   0   0   0   
      0   0   0   0   0   
      0   0   0   0   0   
      0   0   0   0   0   
      0   0   0   0   0   
      0   0   0   0   0   
      0   0   0   0   0   
      0   0   0   0   0   
      0   0   0   0   0   
      0   0   0   0   0   
      0   0   0   0   0   
      0   0   0   0   0   
      0   0   0   0   0   
      0   0   0   0   0   
      0   0   0   0   0   
      0   0   0   0   0   
      0   0   0   0   0   
      0   0   0   0   0   
      0   0   0   0   0   
      0   0   0   0   0   
      0   0   0   0   0   
      0   0   0   0   0   
      0   0   0   0   0   
      0   0   0   0   0   
      0   0   0   0   0   
      0   0   0   0   0   
      0   0   0   0   0   
      0   0   0   0   0   
      0   0   0   0   0   
      0   0   0   0   0   
      0   0   0   0   0   
      0   0   0   0   0   
      0   0   0   0   0   
      0   0   0   0   0   
      0   0   0   0   0   
      0   0   0   0   0   
      0   0   0   0   0   
      0   0   0   0   0   
      0   0   0   0   0   
      0   0   0   0   0   
      0   0   0   0   0   
      0   0   0   0   0   
      0   0   0   0   0   
      0   0   0   0   0   
      0   0   0   0   0   
      0   0   0   0   0   
      0   0   0   0   0   
      0   0   0   0   0   
      0   0   0   0   0   
      0   0   0   0   0   
      0   0   0   0   0   
      0   0   0   0   0   
      0   0   0   0   0   
      0   0   0   0   0   
      0   0   0   0   0   
      0   0   0   0   0   
      0   0   0   0   0   
      0   0   0   0   0   
      0   0   0   0   0   
      0   0   0   0   0   
      0   0   0   0   0   
      0   0   0   0   0   
      0   0   0   0   0   
      0   0   0   0   0   
      0   0   0   0   0   
      0   0   0   0   0   
      0   0   0   0   0   
      0   0   0   0   0   
      0   0   0   0   0   
      0   0   0   0   0   
      0   0   0   0   0   
      0   0   0   0   0   
      0   0   0   0   0   
      0   0   0   0   0   
      0   0   0   0   0   
      0   0   0   0   0   
      0   0   0   0   0   
      0   0   0   0   0   
      0   0   0   0   0   
      0   0   0   0   0   
      0   0   0   0   0   
      0   0   0   0   0   
      0   0   0   0   0   
      0   0   0   0   0   
      0   0   0   0   0   
      0   0   0   0   0   
      0   0   0   0   0   
      0   0   0   0   0   
      0   0   0   0   0   
      0   0   0   0   0   
      0   0   0   0   0   
      0   0   0   0   0   
      0   0   0   0   0   
      0   0   0   0   0   
      0   0   0   0   0   
      0   0   0   0   0   
      0   0   0   0   0   
      0   0   0   0   0   
      0   0   0   0   0   
      0   0   0   0   0   
      0   0   0   0   0   
      0   0   0   0   0   
      0   0   0   0   0   
      0   0   0   0   0   
      0   0   0   0   0   
      0   0   0   0   0   
      0   0   0   0   0   
      0   0   0   0   0   
      0   0   0   0   0   
      0   0   0   0   0   
      0   0   0   0   0   
      0   0   0   0   0   
      0   0   0   0   0   
      0   0   0   0   0   
      0   0   0   0   0   
      0   0   0   0   0   
      0   0   0   0   0   
      0   0   0   0   0   
      0   0   0   0   0   
      0   0   0   0   0   
      0   0   0   0   0   
      0   0   0   0   0   
      0   0   0   0   0   
      0   0   0   0   0   
      0   0   0   0   0   
      0   0   0   0   0   
      0   0   0   0   0   
      0   0   0   0   0   
      0   0   0   0   0   
      0   0   0   0   0   
      0   0   0   0   0   
      0   0   0   0   0   
      0   0   0   0   0   
      0   0   0   0   0   
      0   0   0   0   0   
      0   0   0   0   0   
      0   0   0   0   0   
      0   0   0   0   0   
      0   0   0   0   0   
      0   0   0   0   0   
      0   0   0   0   0   
      0   0   0   0   0   
      0   0   0   0   0   
      0   0   0   0   0   
      0   0   0   0   0   
      0   0   0   0   0   
      0   0   0   0   0   
      0   0   0   0   0   
      0   0   0   0   0   
      0   0   0   0   0   
      0   0   0   0   0   
      0   0   0   0   0   
      0   0   0   0   0   
      0   0   0   0   0   
      0   0   0   0   0   
      0   0   0   0   0   
      0   0   0   0   0   
      0   0   0   0   0   
      0   0   0   0   0   
      0   0   0   0   0   
      0   0   0   0   0   
      0   0   0   0   0   
      0   0   0   0   0   
      0   0   0   0   0   
      0   0   0   0   0   
      0   0   0   0   0   
      0   0   0   0   0   
      0   0   0   0   0   
      0   0   0   0   0   
      0   0   0   0   0   
      0   0   0   0   0   
      0   0   0   0   0   
      0   0   0   0   0   
      0   0   0   0   0   
      0   0   0   0   0   
      0   0   0   0   0   
      0   0   0   0   0   
      0   0   0   0   0   
      0   0   0   0   0   
      0   0   0   0   0   
      0   0   0   0   0   
      0   0   0   0   0   
      0   0   0   0   0   
      0   0   0   0   0   
      0.0847015889226   0.084703810942   0.0847104674709   0.084721529896   0.084736950447   
      0.0847566620785   0.0847805783137   0.0848085930593   0.0848405804026   0.0848763944057   
      0.0849158689133   0.0849588173934   0.0850050328325   0.0850542877089   0.0851063340706   
      0.0851609037427   0.0852177086947   0.085276441594   0.0853367765726   0.085398370236   
      0.085460862934   0.0855238803164   0.0855870351883   0.0856499296734   0.0857121576901   
      0.0857733077336   0.0858329659506   0.0858907194842   0.0859461600544   0.0859988877336   
      0.0860485148633   0.0860946700543   0.0861370021994   0.0861751844291   0.0862089179299   
      0.0862379355503   0.0862620051135   0.0862809323653   0.0862945634895   0.0863027871288   
      0.0863055358664   0.0863027871288   0.0862945634895   0.0862809323653   0.0862620051135   
      0.0862379355503   0.0862089179299   0.0861751844291   0.0861370021994   0.0860946700543   
      0.0860485148633   0.0859988877336   0.0859461600544   0.0858907194842   0.0858329659506   
      0.0857733077336   0.0857121576901   0.0856499296734   0.0855870351883   0.0855238803164   
      0.085460862934   0.085398370236   0.0853367765726   0.085276441594   0.0852177086947   
      0.0851609037427   0.0851063340706   0.0850542877089   0.0850050328325   0.0849588173934   
      0.0849158689133   0.0848763944057   0.0848405804026   0.0848085930593   0.0847805783137   
      0.0847566620785   0.084736950447   0.084721529896   0.0847104674709   0.084703810942   
      0.0937227021985   0.093725894033   0.0937354559562   0.0937513471883   0.0937734996356   
      0.0938018177052   0.0938361780603   0.0938764293274   0.0939223917745   0.0939738569807   
      0.0940305875219   0.0940923167015   0.0941587483585   0.0942295567872   0.094304386807   
      0.0943828540222   0.094464545312   0.0945490195934   0.0946358088958   0.0947244197875   
      0.0948143351869   0.0949050165902   0.0949959067351   0.0950864327177   0.0951760095645   
      0.0952640442519   0.0953499401546   0.0954331018861   0.0955129404854   0.0955888788868   
      0.0956603575974   0.0957268404935   0.09578782064   0.0958428260229   0.0958914250866   
      0.0959332319596   0.0959679112572   0.0959951823548   0.0960148230324   0.0960266724046   
      0.0960306330669   0.0960266724046   0.0960148230324   0.0959951823548   0.0959679112572   
      0.0959332319596   0.0958914250866   0.0958428260229   0.09578782064   0.0957268404935   
      0.0956603575974   0.0955888788868   0.0955129404854   0.0954331018861   0.0953499401546   
      0.0952640442519   0.0951760095645   0.0950864327177   0.0949959067351   0.0949050165902   
      0.0948143351869   0.0947244197875   0.0946358088958   0.0945490195934   0.094464545312   
      0.0943828540222   0.094304386807   0.0942295567872   0.0941587483585   0.0940923167015   
      0.0940305875219   0.0939738569807   0.0939223917745   0.0938764293274   0.0938361780603   
      0.0938018177052   0.0937734996356   0.0937513471883   0.0937354559562   0.093725894033   
      0.109364959293   0.109370179528   0.109385818145   0.109411808813   0.109448040755   
      0.109494358427   0.109550561084   0.109616402268   0.109691589236   0.109775782374   
      0.109868594634   0.109969591039   0.110078288324   0.110194154751   0.110316610182   
      0.110445026462   0.110578728193   0.110716993958   0.110859058061   0.111004112864   
      0.111151311751   0.111299772792   0.111448583124   0.111596804087   0.111743477105   
      0.111887630311   0.112028285866   0.112164467932   0.112295211198   0.112419569875   
      0.112536627017   0.112645504035   0.112745370238   0.112835452226   0.112915042956   
      0.112983510284   0.113040304826   0.113084966932   0.11311713264   0.11313653846   
      0.11314302487   0.11313653846   0.11311713264   0.113084966932   0.113040304826   
      0.112983510284   0.112915042956   0.112835452226   0.112745370238   0.112645504035   
      0.112536627017   0.112419569875   0.112295211198   0.112164467932   0.112028285866   
      0.111887630311   0.111743477105   0.111596804087   0.111448583124   0.111299772792   
      0.111151311751   0.111004112864   0.110859058061   0.110716993958   0.110578728193   
      0.110445026462   0.110316610182   0.110194154751   0.110078288324   0.109969591039   
      0.109868594634   0.109775782374   0.109691589236   0.109616402268   0.109550561084   
      0.109494358427   0.109448040755   0.109411808813   0.109385818145   0.109370179528   
      0.122602723425   0.122610125474   0.122632300201   0.122669153238   0.122720526992   
      0.122786200175   0.12286588719   0.122959237406   0.123065834341   0.123185194841   
      0.123316768288   0.123459935922   0.123614010348   0.123778235323   0.123951785901   
      0.124133769041   0.124323224777   0.124519128034   0.1247203912   0.124925867529   
      0.125134355461   0.125344603915   0.125555318611   0.125765169435   0.125972798855   
      0.12617683137   0.126375883915   0.126568577155   0.126753547539   0.126929459968   
      0.127095020904   0.127248991701   0.127390201951   0.127517562591   0.127630078523   
      0.1277268605   0.127807136018   0.12787025899   0.127915717981   0.127943142822   
      0.127952309442   0.127943142822   0.127915717981   0.12787025899   0.127807136018   
      0.1277268605   0.127630078523   0.127517562591   0.127390201951   0.127248991701   
      0.127095020904   0.126929459968   0.126753547539   0.126568577155   0.126375883915   
      0.12617683137   0.125972798855   0.125765169435   0.125555318611   0.125344603915   
      0.125134355461   0.124925867529   0.1247203912   0.124519128034   0.124323224777   
      0.124133769041   0.123951785901   0.123778235323   0.123614010348   0.123459935922   
      0.123316768288   0.123185194841   0.123065834341   0.122959237406   0.12286588719   
      0.122786200175   0.122720526992   0.122669153238   0.122632300201   0.122610125474   
      0.135089467595   0.13509903749   0.135127706171   0.135175350498   0.13524176484   
      0.135326660499   0.135429664938   0.135550320889   0.135688085353   0.135842328608   
      0.136012333267   0.136197293511   0.136396314574   0.136608412607   0.136832515033   
      0.137067461519   0.137312005679   0.137564817643   0.137824487602   0.138089530431   
      0.138358391498   0.138629453709   0.138901045866   0.139171452342   0.139438924068   
      0.139701690796   0.139957974545   0.140206004126   0.140444030567   0.140670343266   
      0.14088328663   0.141081276945   0.141262819193   0.141426523524   0.141571121067   
      0.141695478776   0.141798613007   0.141879701551   0.141938093853   0.141973319218   
      0.141985092793   0.141973319218   0.141938093853   0.141879701551   0.141798613007   
      0.141695478776   0.141571121067   0.141426523524   0.141262819193   0.141081276945   
      0.14088328663   0.140670343266   0.140444030567   0.140206004126   0.139957974545   
      0.139701690796   0.139438924068   0.139171452342   0.138901045866   0.138629453709   
      0.138358391498   0.138089530431   0.137824487602   0.137564817643   0.137312005679   
      0.137067461519   0.136832515033   0.136608412607   0.136396314574   0.136197293511   
      0.136012333267   0.135842328608   0.135688085353   0.135550320889   0.135429664938   
      0.135326660499   0.13524176484   0.135175350498   0.135127706171   0.13509903749   
      0.145892110254   0.145903539932   0.145937779348   0.145994679511   0.146073991656   
      0.146175366598   0.146298353889   0.146442400822   0.146606851365   0.1467909451   
      0.146993816263   0.147214493019   0.14745189706   0.147704843697   0.147972042547   
      0.148252098992   0.148543516536   0.148844700194   0.149153961065   0.14946952219   
      0.149789525794   0.150112042002   0.150435079063   0.150756595095   0.151074511332   
      0.151386726808   0.151691134365   0.151985637838   0.152268170219   0.152536712579   
      0.152789313461   0.153024108466   0.153239339691   0.15343337469   0.153604724622   
      0.153752061224   0.153874232298   0.153970275397   0.154039429431   0.154081143956   
      0.154095085954   0.154081143956   0.154039429431   0.153970275397   0.153874232298   
      0.153752061224   0.153604724622   0.15343337469   0.153239339691   0.153024108466   
      0.152789313461   0.152536712579   0.152268170219   0.151985637838   0.151691134365   
      0.151386726808   0.151074511332   0.150756595095   0.150435079063   0.150112042002   
      0.149789525794   0.14946952219   0.149153961065   0.148844700194   0.148543516536   
      0.148252098992   0.147972042547   0.147704843697   0.14745189706   0.147214493019   
      0.146993816263   0.1467909451   0.146606851365   0.146442400822   0.146298353889   
      0.146175366598   0.146073991656   0.145994679511   0.145937779348   0.145903539932   
      0.154369871689   0.154382712733   0.154421179363   0.154485101939   0.154574197259   
      0.154688067899   0.154826201346   0.154987968992   0.155172625069   0.15537930563   
      0.155607027665   0.155854688516   0.156121065685   0.156404817225   0.156704482835   
      0.157018485838   0.157345136187   0.157682634648   0.158029078313   0.158382467543   
      0.158740714452   0.159101653007   0.159463050773   0.159822622301   0.160178044125   
      0.160526971282   0.160867055208   0.16119596285   0.161511396765   0.161811115947   
      0.162092957078   0.162354855898   0.162594868319   0.162811190962   0.163002180716   
      0.163166373002   0.163302498366   0.163409497127   0.163486531754   0.16353299677   
      0.163548525963   0.16353299677   0.163486531754   0.163409497127   0.163302498366   
      0.163166373002   0.163002180716   0.162811190962   0.162594868319   0.162354855898   
      0.162092957078   0.161811115947   0.161511396765   0.16119596285   0.160867055208   
      0.160526971282   0.160178044125   0.159822622301   0.159463050773   0.159101653007   
      0.158740714452   0.158382467543   0.158029078313   0.157682634648   0.157345136187   
      0.157018485838   0.156704482835   0.156404817225   0.156121065685   0.155854688516   
      0.155607027665   0.15537930563   0.155172625069   0.154987968992   0.154826201346   
      0.154688067899   0.154574197259   0.154485101939   0.154421179363   0.154382712733   
      0.160127552574   0.160141316078   0.160182545368   0.160251056642   0.160346543103   
      0.160468574296   0.160616595263   0.160789925558   0.160987758239   0.161209158915   
      0.161453064988   0.16171828522   0.162003499763   0.162307260829   0.162627994143   
      0.162964001361   0.163313463603   0.163674446256   0.164044905199   0.164422694556   
      0.164805576079   0.165191230227   0.165577268962   0.16596125026   0.166340694267   
      0.166713101005   0.167075969477   0.167426817969   0.167763205317   0.16808275286   
      0.168383166757   0.168662260344   0.168917976168   0.169148407327   0.169351817764   
      0.169526661147   0.169671598001   0.16978551078   0.169867516606   0.169916977422   
      0.169933507398   0.169916977422   0.169867516606   0.16978551078   0.169671598001   
      0.169526661147   0.169351817764   0.169148407327   0.168917976168   0.168662260344   
      0.168383166757   0.16808275286   0.167763205317   0.167426817969   0.167075969477   
      0.166713101005   0.166340694267   0.16596125026   0.165577268962   0.165191230227   
      0.164805576079   0.164422694556   0.164044905199   0.163674446256   0.163313463603   
      0.162964001361   0.162627994143   0.162307260829   0.162003499763   0.16171828522   
      0.161453064988   0.161209158915   0.160987758239   0.160789925558   0.160616595263   
      0.160468574296   0.160346543103   0.160251056642   0.160182545368   0.160141316078   
      0.163021060986   0.163035274807   0.163077852664   0.163148603602   0.163247208905   
      0.163373221453   0.16352606488   0.16370503263   0.163909286979   0.164137858145   
      0.164389643608   0.164663407777   0.164957782159   0.165271266199   0.165602228939   
      0.165948911685   0.166309431835   0.166681788024   0.16706386673   0.167453450455   
      0.167848227581   0.168245803953   0.168643716207   0.169039446846   0.169430440961   
      0.16981412452   0.170187924043   0.170549287463   0.170895705934   0.17122473628   
      0.171534023785   0.171821324969   0.17208453   0.172321684361   0.172531009421   
      0.172710921547   0.172860049427   0.172977249286   0.173061617738   0.173112502025   
      0.173129507476   0.173112502025   0.173061617738   0.172977249286   0.172860049427   
      0.172710921547   0.172531009421   0.172321684361   0.17208453   0.171821324969   
      0.171534023785   0.17122473628   0.170895705934   0.170549287463   0.170187924043   
      0.16981412452   0.169430440961   0.169039446846   0.168643716207   0.168245803953   
      0.167848227581   0.167453450455   0.16706386673   0.166681788024   0.166309431835   
      0.165948911685   0.165602228939   0.165271266199   0.164957782159   0.164663407777   
      0.164389643608   0.164137858145   0.163909286979   0.16370503263   0.16352606488   
      0.163373221453   0.163247208905   0.163148603602   0.163077852664   0.163035274807   
      0.163021060986   0.163035274807   0.163077852664   0.163148603602   0.163247208905   
      0.163373221453   0.16352606488   0.16370503263   0.163909286979   0.164137858145   
      0.164389643608   0.164663407777   0.164957782159   0.165271266199   0.165602228939   
      0.165948911685   0.166309431835   0.166681788024   0.16706386673   0.167453450455   
      0.167848227581   0.168245803953   0.168643716207   0.169039446846   0.169430440961   
      0.16981412452   0.170187924043   0.170549287463   0.170895705934   0.17122473628   
      0.171534023785   0.171821324969   0.17208453   0.172321684361   0.172531009421   
      0.172710921547   0.172860049427   0.172977249286   0.173061617738   0.173112502025   
      0.173129507476   0.173112502025   0.173061617738   0.172977249286   0.172860049427   
      0.172710921547   0.172531009421   0.172321684361   0.17208453   0.171821324969   
      0.171534023785   0.17122473628   0.170895705934   0.170549287463   0.170187924043   
      0.16981412452   0.169430440961   0.169039446846   0.168643716207   0.168245803953   
      0.167848227581   0.167453450455   0.16706386673   0.166681788024   0.166309431835   
      0.165948911685   0.165602228939   0.165271266199   0.164957782159   0.164663407777   
      0.164389643608   0.164137858145   0.163909286979   0.16370503263   0.16352606488   
      0.163373221453   0.163247208905   0.163148603602   0.163077852664   0.163035274807   
      0.160127552574   0.160141316078   0.160182545368   0.160251056642   0.160346543103   
      0.160468574296   0.160616595263   0.160789925558   0.160987758239   0.161209158915   
      0.161453064988   0.16171828522   0.162003499763   0.162307260829   0.162627994143   
      0.162964001361   0.163313463603   0.163674446256   0.164044905199   0.164422694556   
      0.164805576079   0.165191230227   0.165577268962   0.16596125026   0.166340694267   
      0.166713101005   0.167075969477   0.167426817969   0.167763205317   0.16808275286   
      0.168383166757   0.168662260344   0.168917976168   0.169148407327   0.169351817764   
      0.169526661147   0.169671598001   0.16978551078   0.169867516606   0.169916977422   
      0.169933507398   0.169916977422   0.169867516606   0.16978551078   0.169671598001   
      0.169526661147   0.169351817764   0.169148407327   0.168917976168   0.168662260344   
      0.168383166757   0.16808275286   0.167763205317   0.167426817969   0.167075969477   
      0.166713101005   0.166340694267   0.16596125026   0.165577268962   0.165191230227   
      0.164805576079   0.164422694556   0.164044905199   0.163674446256   0.163313463603   
      0.162964001361   0.162627994143   0.162307260829   0.162003499763   0.16171828522   
      0.161453064988   0.161209158915   0.160987758239   0.160789925558   0.160616595263   
      0.160468574296   0.160346543103   0.160251056642   0.160182545368   0.160141316078   
      0.154369871689   0.154382712733   0.154421179363   0.154485101939   0.154574197259   
      0.154688067899   0.154826201346   0.154987968992   0.155172625069   0.15537930563   
      0.155607027665   0.155854688516   0.156121065685   0.156404817225   0.156704482835   
      0.157018485838   0.157345136187   0.157682634648   0.158029078313   0.158382467543   
      0.158740714452   0.159101653007   0.159463050773   0.159822622301   0.160178044125   
      0.160526971282   0.160867055208   0.16119596285   0.161511396765   0.161811115947   
      0.162092957078   0.162354855898   0.162594868319   0.162811190962   0.163002180716   
      0.163166373002   0.163302498366   0.163409497127   0.163486531754   0.16353299677   
      0.163548525963   0.16353299677   0.163486531754   0.163409497127   0.163302498366   
      0.163166373002   0.163002180716   0.162811190962   0.162594868319   0.162354855898   
      0.162092957078   0.161811115947   0.161511396765   0.16119596285   0.160867055208   
      0.160526971282   0.160178044125   0.159822622301   0.159463050773   0.159101653007   
      0.158740714452   0.158382467543   0.158029078313   0.157682634648   0.157345136187   
      0.157018485838   0.156704482835   0.156404817225   0.156121065685   0.155854688516   
      0.155607027665   0.15537930563   0.155172625069   0.154987968992   0.154826201346   
      0.154688067899   0.154574197259   0.154485101939   0.154421179363   0.154382712733   
      0.145892110254   0.145903539932   0.145937779348   0.145994679511   0.146073991656   
      0.146175366598   0.146298353889   0.146442400822   0.146606851365   0.1467909451   
      0.146993816263   0.147214493019   0.14745189706   0.147704843697   0.147972042547   
      0.148252098992   0.148543516536   0.148844700194   0.149153961065   0.14946952219   
      0.149789525794   0.150112042002   0.150435079063   0.150756595095   0.151074511332   
      0.151386726808   0.151691134365   0.151985637838   0.152268170219   0.152536712579   
      0.152789313461   0.153024108466   0.153239339691   0.15343337469   0.153604724622   
      0.153752061224   0.153874232298   0.153970275397   0.154039429431   0.154081143956   
      0.154095085954   0.154081143956   0.154039429431   0.153970275397   0.153874232298   
      0.153752061224   0.153604724622   0.15343337469   0.153239339691   0.153024108466   
      0.152789313461   0.152536712579   0.152268170219   0.151985637838   0.151691134365   
      0.151386726808   0.151074511332   0.150756595095   0.150435079063   0.150112042002   
      0.149789525794   0.14946952219   0.149153961065   0.148844700194   0.148543516536   
      0.148252098992   0.147972042547   0.147704843697   0.14745189706   0.147214493019   
      0.146993816263   0.1467909451   0.146606851365   0.146442400822   0.146298353889   
      0.146175366598   0.146073991656   0.145994679511   0.145937779348   0.145903539932   
      0.135089467595   0.13509903749   0.135127706171   0.135175350498   0.13524176484   
      0.135326660499   0.135429664938   0.135550320889   0.135688085353   0.135842328608   
      0.136012333267   0.136197293511   0.136396314574   0.136608412607   0.136832515033   
      0.137067461519   0.137312005679   0.137564817643   0.137824487602   0.138089530431   
      0.138358391498   0.138629453709   0.138901045866   0.139171452342   0.139438924068   
      0.139701690796   0.139957974545   0.140206004126   0.140444030567   0.140670343266   
      0.14088328663   0.141081276945   0.141262819193   0.141426523524   0.141571121067   
      0.141695478776   0.141798613007   0.141879701551   0.141938093853   0.141973319218   
      0.141985092793   0.141973319218   0.141938093853   0.141879701551   0.141798613007   
      0.141695478776   0.141571121067   0.141426523524   0.141262819193   0.141081276945   
      0.14088328663   0.140670343266   0.140444030567   0.140206004126   0.139957974545   
      0.139701690796   0.139438924068   0.139171452342   0.138901045866   0.138629453709   
      0.138358391498   0.138089530431   0.137824487602   0.137564817643   0.137312005679   
      0.137067461519   0.136832515033   0.136608412607   0.136396314574   0.136197293511   
      0.136012333267   0.135842328608   0.135688085353   0.135550320889   0.135429664938   