<?xml version="1.0"?>
<VTKFile type="ImageData" version="0.1" byte_order="LittleEndian">
  <ImageData WholeExtent="0 79 0 19 0 19" Origin="0 0 0" Spacing="1 1 1">
  <Piece Extent="0 79 0 19 0 19">
    <PointData Scalars="density">
       <DataArray type="Float32" Name="reddensity" NumberOfComponents="1" format="ascii">
      0   0   0   0   0   
      0   0   0   0   0   
      0   0   0   0   0   
      0   0   0   0   0   
      0   0   0   0   0   
      0   0   0   0   0   
      0   0   0   0   0   
      0   0   0   0   0   
      0   0   0   0   0   
      0   0   0   0   0   
      0   0   0   0   0   
      0   0   0   0   0   
      0   0   0   0   0   
      0   0   0   0   0   
      0   0   0   0   0   
      0   0   0   0   0   
      0   0   0   0   0   
      0   0   0   0   0   
      0   0   0   0   0   
      0   0   0   0   0   
      0   0   0   0   0   
      0   0   0   0   0   
      0   0   0   0   0   
      0   0   0   0   0   
      0   0   0   0   0   
      0   0   0   0   0   
      0   0   0   0   0   
      0   0   0   0   0   
      0   0   0   0   0   
      0   0   0   0   0   
      0   0   0   0   0   
      0   0   0   0   0   
      0   0   0   0   0   
      0   0   0   0   0   
      0   0   0   0   0   
      0   0   0   0   0   
      0   0   0   0   0   
      0   0   0   0   0   
      0   0   0   0   0   
      0   0   0   0   0   
      0   0   0   0   0   
      0   0   0   0   0   
      0   0   0   0   0   
      0   0   0   0   0   
      0   0   0   0   0   
      0   0   0   0   0   
      0   0   0   0   0   
      0   0   0   0   0   
      0   0   0   0   0   
      0   0   0   0   0   
      0   0   0   0   0   
      0   0   0   0   0   
      0   0   0   0   0   
      0   0   0   0   0   
      0   0   0   0   0   
      0   0   0   0   0   
      0   0   0   0   0   
      0   0   0   0   0   
      0   0   0   0   0   
      0   0   0   0   0   
      0   0   0   0   0   
      0   0   0   0   0   
      0   0   0   0   0   
      0   0   0   0   0   
      0   0   0   0   0   
      0   0   0   0   0   
      0   0   0   0   0   
      0   0   0   0   0   
      0   0   0   0   0   
      0   0   0   0   0   
      0   0   0   0   0   
      0   0   0   0   0   
      0   0   0   0   0   
      0   0   0   0   0   
      0   0   0   0   0   
      0   0   0   0   0   
      0   0   0   0   0   
      0   0   0   0   0   
      0   0   0   0   0   
      0   0   0   0   0   
      0   0   0   0   0   
      0   0   0   0   0   
      0   0   0   0   0   
      0   0   0   0   0   
      0   0   0   0   0   
      0   0   0   0   0   
      0   0   0   0   0   
      0   0   0   0   0   
      0   0   0   0   0   
      0   0   0   0   0   
      0   0   0   0   0   
      0   0   0   0   0   
      0   0   0   0   0   
      0   0   0   0   0   
      0   0   0   0   0   
      0   0   0   0   0   
      0   0   0   0   0   
      0   0   0   0   0   
      0   0   0   0   0   
      0   0   0   0   0   
      0   0   0   0   0   
      0   0   0   0   0   
      0   0   0   0   0   
      0   0   0   0   0   
      0   0   0   0   0   
      0   0   0   0   0   
      0   0   0   0   0   
      0   0   0   0   0   
      0   0   0   0   0   
      0   0   0   0   0   
      0   0   0   0   0   
      0   0   0   0   0   
      0   0   0   0   0   
      0   0   0   0   0   
      0   0   0   0   0   
      0   0   0   0   0   
      0   0   0   0   0   
      0   0   0   0   0   
      0   0   0   0   0   
      0   0   0   0   0   
      0   0   0   0   0   
      0   0   0   0   0   
      0   0   0   0   0   
      0   0   0   0   0   
      0   0   0   0   0   
      0   0   0   0   0   
      0   0   0   0   0   
      0   0   0   0   0   
      0   0   0   0   0   
      0   0   0   0   0   
      0   0   0   0   0   
      0   0   0   0   0   
      0   0   0   0   0   
      0   0   0   0   0   
      0   0   0   0   0   
      0   0   0   0   0   
      0   0   0   0   0   
      0   0   0   0   0   
      0   0   0   0   0   
      0   0   0   0   0   
      0   0   0   0   0   
      0   0   0   0   0   
      0   0   0   0   0   
      0   0   0   0   0   
      0   0   0   0   0   
      0   0   0   0   0   
      0   0   0   0   0   
      0   0   0   0   0   
      0   0   0   0   0   
      0   0   0   0   0   
      0   0   0   0   0   
      0   0   0   0   0   
      0   0   0   0   0   
      0   0   0   0   0   
      0   0   0   0   0   
      0   0   0   0   0   
      0   0   0   0   0   
      0   0   0   0   0   
      0   0   0   0   0   
      0   0   0   0   0   
      0   0   0   0   0   
      0   0   0   0   0   
      0   0   0   0   0   
      0   0   0   0   0   
      0   0   0   0   0   
      0   0   0   0   0   
      0   0   0   0   0   
      0   0   0   0   0   
      0   0   0   0   0   
      0   0   0   0   0   
      0   0   0   0   0   
      0   0   0   0   0   
      0   0   0   0   0   
      0   0   0   0   0   
      0   0   0   0   0   
      0   0   0   0   0   
      0   0   0   0   0   
      0   0   0   0   0   
      0   0   0   0   0   
      0   0   0   0   0   
      0   0   0   0   0   
      0   0   0   0   0   
      0   0   0   0   0   
      0   0   0   0   0   
      0   0   0   0   0   
      0   0   0   0   0   
      0   0   0   0   0   
      0   0   0   0   0   
      0   0   0   0   0   
      0   0   0   0   0   
      0   0   0   0   0   
      0   0   0   0   0   
      0   0   0   0   0   
      0   0   0   0   0   
      0   0   0   0   0   
      0   0   0   0   0   
      0   0   0   0   0   
      0   0   0   0   0   
      0   0   0   0   0   
      0   0   0   0   0   
      0   0   0   0   0   
      0   0   0   0   0   
      0   0   0   0   0   
      0   0   0   0   0   
      0   0   0   0   0   
      0   0   0   0   0   
      0   0   0   0   0   
      0   0   0   0   0   
      0   0   0   0   0   
      0   0   0   0   0   
      0   0   0   0   0   
      0   0   0   0   0   
      0   0   0   0   0   
      0   0   0   0   0   
      0   0   0   0   0   
      0   0   0   0   0   
      0   0   0   0   0   
      0   0   0   0   0   
      0   0   0   0   0   
      0   0   0   0   0   
      0   0   0   0   0   
      0   0   0   0   0   
      0   0   0   0   0   
      0   0   0   0   0   
      0   0   0   0   0   
      0   0   0   0   0   
      0   0   0   0   0   
      0   0   0   0   0   
      0   0   0   0   0   
      0   0   0   0   0   
      0   0   0   0   0   
      0   0   0   0   0   
      0   0   0   0   0   
      0   0   0   0   0   
      0   0   0   0   0   
      0   0   0   0   0   
      0   0   0   0   0   
      0   0   0   0   0   
      0   0   0   0   0   
      0   0   0   0   0   
      0   0   0   0   0   
      0   0   0   0   0   
      0   0   0   0   0   
      0   0   0   0   0   
      0   0   0   0   0   
      0   0   0   0   0   
      0   0   0   0   0   
      0   0   0   0   0   
      0   0   0   0   0   
      0   0   0   0   0   
      0   0   0   0   0   
      0   0   0   0   0   
      0   0   0   0   0   
      0   0   0   0   0   
      0   0   0   0   0   
      0   0   0   0   0   
      0   0   0   0   0   
      0   0   0   0   0   
      0   0   0   0   0   
      0   0   0   0   0   
      0   0   0   0   0   
      0   0   0   0   0   
      0   0   0   0   0   
      0   0   0   0   0   
      0   0   0   0   0   
      0   0   0   0   0   
      0   0   0   0   0   
      0   0   0   0   0   
      0   0   0   0   0   
      0   0   0   0   0   
      0   0   0   0   0   
      0   0   0   0   0   
      0   0   0   0   0   
      0   0   0   0   0   
      0   0   0   0   0   
      0   0   0   0   0   
      0   0   0   0   0   
      0   0   0   0   0   
      0   0   0   0   0   
      0   0   0   0   0   
      0   0   0   0   0   
      0   0   0   0   0   
      0   0   0   0   0   
      0   0   0   0   0   
      0   0   0   0   0   
      0   0   0   0   0   
      0   0   0   0   0   
      0   0   0   0   0   
      0   0   0   0   0   
      0   0   0   0   0   
      0   0   0   0   0   
      0   0   0   0   0   
      0   0   0   0   0   
      0   0   0   0   0   
      0   0   0   0   0   
      0   0   0   0   0   
      0   0   0   0   0   
      0   0   0   0   0   
      0   0   0   0   0   
      0   0   0   0   0   
      0   0   0   0   0   
      0   0   0   0   0   
      0   0   0   0   0   
      0   0   0   0   0   
      0   0   0   0   0   
      0   0   0   0   0   
      0   0   0   0   0   
      0   0   0   0   0   
      0   0   0   0   0   
      0   0   0   0   0   
      0   0   0   0   0   
      0   0   0   0   0   
      0   0   0   0   0   
      0   0   0   0   0   
      0   0   0   0   0   
      0   0   0   0   0   
      0   0   0   0   0   
      0   0   0   0   0   
      0   0   0   0   0   
      0   0   0   0   0   
      0   0   0   0   0   
      0   0   0   0   0   
      0   0   0   0   0   
      0   0   0   0   0   
      0   0   0   0   0   
      0   0   0   0   0   
      0   0   0   0   0   
      0   0   0   0   0   
      0   0   0   0   0   
      0   0   0   0   0   
      0   0   0   0   0   
      0   0   0   0   0   
      0   0   0   0   0   
      0   0   0   0   0   
      0   0   0   0   0   
      0   0   0   0   0   
      0.0839686372908   0.0839727412461   0.083985042536   0.0840055092694   0.0840340877493   
      0.0840707016606   0.0841152509395   0.0841676103372   0.0842276276891   0.0842951219124   
      0.0843698807558   0.08445165834   0.0845401725334   0.0846351022217   0.0847360845432   
      0.0848427121767   0.0849545307821   0.0850710367122   0.0851916751261   0.085315838647   
      0.0854428667182   0.0855720458122   0.0857026106494   0.0858337465722   0.085964593205   
      0.0860942495029   0.0862217802582   0.0863462240912   0.0864666028964   0.0865819326613   
      0.0866912355111   0.0867935527696   0.0868879587684   0.0869735750784   0.0870495847982   
      0.087115246497   0.0871699073986   0.0872130153916   0.0872441294745   0.0872629282842   
      0.0872692164117   0.0872629282842   0.0872441294745   0.0872130153916   0.0871699073986   
      0.087115246497   0.0870495847982   0.0869735750784   0.0868879587684   0.0867935527696   
      0.0866912355111   0.0865819326613   0.0864666028964   0.0863462240912   0.0862217802582   
      0.0860942495029   0.085964593205   0.0858337465722   0.0857026106494   0.0855720458122   
      0.0854428667182   0.085315838647   0.0851916751261   0.0850710367122   0.0849545307821   
      0.0848427121767   0.0847360845432   0.0846351022217   0.0845401725334   0.08445165834   
      0.0843698807558   0.0842951219124   0.0842276276891   0.0841676103372   0.0841152509395   
      0.0840707016606   0.0840340877493   0.0840055092694   0.083985042536   0.0839727412461   
      0.0926667796747   0.0926726613439   0.0926902916602   0.0927196263039   0.0927605905897   
      0.0928130782444   0.0928769497079   0.0929520299731   0.093038105986   0.0931349236351   
      0.0932421843716   0.0933595415148   0.0934865963101   0.0936228938284   0.0937679188135   
      0.0939210916052   0.0940817642903   0.0942492172537   0.0944226563234   0.0946012107216   
      0.0947839320443   0.0949697944999   0.0951576966337   0.09534646475   0.0955348582203   
      0.0957215768251   0.0959052702275   0.0960845496089   0.0962580014246   0.0964242031504   
      0.0965817408027   0.0967292279247   0.0968653256422   0.0969887633196   0.0970983592787   
      0.0971930410029   0.097271864227   0.0973340303161   0.0973789013722   0.097406012561   
      0.0974150812389   0.097406012561   0.0973789013722   0.0973340303161   0.097271864227   
      0.0971930410029   0.0970983592787   0.0969887633196   0.0968653256422   0.0967292279247   
      0.0965817408027   0.0964242031504   0.0962580014246   0.0960845496089   0.0959052702275   
      0.0957215768251   0.0955348582203   0.09534646475   0.0951576966337   0.0949697944999   
      0.0947839320443   0.0946012107216   0.0944226563234   0.0942492172537   0.0940817642903   
      0.0939210916052   0.0937679188135   0.0936228938284   0.0934865963101   0.0933595415148   
      0.0932421843716   0.0931349236351   0.093038105986   0.0929520299731   0.0928769497079   
      0.0928130782444   0.0927605905897   0.0927196263039   0.0926902916602   0.0926726613439   
      0.107632441435   0.107642043129   0.107670824869   0.107718716209   0.107785598332   
      0.10787130195   0.107975604389   0.108098225882   0.108238825114   0.108396994067   
      0.10857225224   0.108764040334   0.108971713538   0.109194534542   0.109431666487   
      0.109682166062   0.109944977   0.110218924278   0.110502709345   0.110794906728   
      0.111093962393   0.111398194237   0.111705795083   0.11201483852   0.112323287885   
      0.112629008612   0.112929784096   0.113223335089   0.113507342547   0.11377947368   
      0.11403741084   0.114278882719   0.114501697197   0.114703775069   0.114883183784   
      0.115038170255   0.115167191786   0.115268944168   0.11534238606   0.115386758856   
      0.115401601368   0.115386758856   0.11534238606   0.115268944168   0.115167191786   
      0.115038170255   0.114883183784   0.114703775069   0.114501697197   0.114278882719   
      0.11403741084   0.11377947368   0.113507342547   0.113223335089   0.112929784096   
      0.112629008612   0.112323287885   0.11201483852   0.111705795083   0.111398194237   
      0.111093962393   0.110794906728   0.110502709345   0.110218924278   0.109944977   
      0.109682166062   0.109431666487   0.109194534542   0.108971713538   0.108764040334   
      0.10857225224   0.108396994067   0.108238825114   0.108098225882   0.107975604389   
      0.10787130195   0.107785598332   0.107718716209   0.107670824869   0.107642043129   
      0.120138036524   0.120151654079   0.120192473636   0.120260395257   0.120355250314   
      0.12047679842   0.120624723159   0.120798626679   0.120998023191   0.121222331475   
      0.121470866499   0.121742830293   0.122037302284   0.122353229297   0.122689415527   
      0.123044512791   0.123417011456   0.123805232469   0.124207320958   0.124621241913   
      0.125044778478   0.125475533363   0.125910933894   0.126348241138   0.126784563499   
      0.127216875037   0.12764203866   0.128056834169   0.128457990953   0.128842224963   
      0.129206279377   0.129546968193   0.129861221837   0.130146133677   0.130399006298   
      0.130617396263   0.130799156106   0.130942472333   0.131045898264   0.131108380733   
      0.131129279782   0.131108380733   0.131045898264   0.130942472333   0.130799156106   
      0.130617396263   0.130399006298   0.130146133677   0.129861221837   0.129546968193   
      0.129206279377   0.128842224963   0.128457990953   0.128056834169   0.12764203866   
      0.127216875037   0.126784563499   0.126348241138   0.125910933894   0.125475533363   
      0.125044778478   0.124621241913   0.124207320958   0.123805232469   0.123417011456   
      0.123044512791   0.122689415527   0.122353229297   0.122037302284   0.121742830293   
      0.121470866499   0.121222331475   0.120998023191   0.120798626679   0.120624723159   
      0.12047679842   0.120355250314   0.120260395257   0.120192473636   0.120151654079   
      0.131892566354   0.131910200932   0.131963060976   0.132051014597   0.13217383925   
      0.132331217677   0.132522732283   0.132747858006   0.133005953795   0.133296252794   
      0.133617851427   0.133969697568   0.134350578083   0.134759106051   0.135193708064   
      0.135652612039   0.136133836076   0.136635178916   0.13715421262   0.137688278121   
      0.138234484318   0.138789711324   0.139350618511   0.139913657831   0.140475092837   
      0.141031023663   0.14157741802   0.142110148104   0.142625033053   0.143117886377   
      0.143584567566   0.144021036872   0.14442341207   0.144788025873   0.145111482584   
      0.145390712507   0.14562302266   0.1458061424   0.145938262676   0.146018067801   
      0.146044758816   0.146018067801   0.145938262676   0.1458061424   0.14562302266   
      0.145390712507   0.145111482584   0.144788025873   0.14442341207   0.144021036872   
      0.143584567566   0.143117886377   0.142625033053   0.142110148104   0.14157741802   
      0.141031023663   0.140475092837   0.139913657831   0.139350618511   0.138789711324   
      0.138234484318   0.137688278121   0.13715421262   0.136635178916   0.136133836076   
      0.135652612039   0.135193708064   0.134759106051   0.134350578083   0.133969697568   
      0.133617851427   0.133296252794   0.133005953795   0.132747858006   0.132522732283   
      0.132331217677   0.13217383925   0.132051014597   0.131963060976   0.131910200932   
      0.142061871439   0.142082987743   0.142146282706   0.142251593487   0.142398645381   
      0.142587046908   0.142816283013   0.143085706489   0.143394527729   0.143741802996   
      0.144126421423   0.144547091029   0.14500232409   0.14549042229   0.146009462133   
      0.146557281188   0.147131465793   0.147729340918   0.148347962916   0.14898411593   
      0.149634312697   0.150294800479   0.150961572736   0.151630387091   0.152296789924   
      0.1529561478   0.153603685662   0.154234531524   0.154843767128   0.155426483774   
      0.155977842323   0.156493136159   0.156967855735   0.157397753208   0.157778905629   
      0.15810777511   0.158381264484   0.158596767032   0.158752209022   0.158846083971   
      0.158877477762   0.158846083971   0.158752209022   0.158596767032   0.158381264484   
      0.15810777511   0.157778905629   0.157397753208   0.156967855735   0.156493136159   
      0.155977842323   0.155426483774   0.154843767128   0.154234531524   0.153603685662   
      0.1529561478   0.152296789924   0.151630387091   0.150961572736   0.150294800479   
      0.149634312697   0.14898411593   0.148347962916   0.147729340918   0.147131465793   
      0.146557281188   0.146009462133   0.14549042229   0.14500232409   0.144547091029   
      0.144126421423   0.143741802996   0.143394527729   0.143085706489   0.142816283013   
      0.142587046908   0.142398645381   0.142251593487   0.142146282706   0.142082987743   
      0.150054746963   0.150078537518   0.150149846381   0.150268484018   0.150434130801   
      0.150646331442   0.150904487327   0.151207846839   0.15155549386   0.151946334649   
      0.15237908338   0.152852246674   0.153364107564   0.153912709361   0.15449584003   
      0.155111017712   0.155755478139   0.156426164702   0.157119722028   0.157832493854   
      0.158560526034   0.159299575397   0.160045125082   0.160792406848   0.161536430619   
      0.162272021355   0.162993863039   0.163696549353   0.164374640306   0.165022723884   
      0.165635481512   0.166207756001   0.166734620468   0.167211446686   0.16763397128   
      0.167998358237   0.168301256273   0.168539849736   0.168711901898   0.168815789646   
      0.168850528821   0.168815789646   0.168711901898   0.168539849736   0.168301256273   
      0.167998358237   0.16763397128   0.167211446686   0.166734620468   0.166207756001   
      0.165635481512   0.165022723884   0.164374640306   0.163696549353   0.162993863039   
      0.162272021355   0.161536430619   0.160792406848   0.160045125082   0.159299575397   
      0.158560526034   0.157832493854   0.157119722028   0.156426164702   0.155755478139   
      0.155111017712   0.15449584003   0.153912709361   0.153364107564   0.152852246674   
      0.15237908338   0.151946334649   0.15155549386   0.151207846839   0.150904487327   
      0.150646331442   0.150434130801   0.150268484018   0.150149846381   0.150078537518   
      0.155492874625   0.155518433886   0.155595042382   0.155722491037   0.155900427367   
      0.1561283495   0.15640559794   0.156731345205   0.157104583539   0.157524110935   
      0.157988515802   0.158496160648   0.159045165272   0.159633390009   0.160258419679   
      0.160917548963   0.161607769988   0.162325762986   0.163067890874   0.163830198628   
      0.16460841828   0.165397980239   0.166194031574   0.166991461641   0.167784935287   
      0.168568933579   0.169337801735   0.170085803706   0.170807182517   0.171496225322   
      0.172147331853   0.172755084829   0.173314320805   0.173820199853   0.174268272559   
      0.174654542842   0.17497552523   0.175228295399   0.175410532933   0.175520555454   
      0.175557343468   0.175520555454   0.175410532933   0.175228295399   0.17497552523   
      0.174654542842   0.174268272559   0.173820199853   0.173314320805   0.172755084829   
      0.172147331853   0.171496225322   0.170807182517   0.170085803706   0.169337801735   
      0.168568933579   0.167784935287   0.166991461641   0.166194031574   0.165397980239   
      0.16460841828   0.163830198628   0.163067890874   0.162325762986   0.161607769988   
      0.160917548963   0.160258419679   0.159633390009   0.159045165272   0.158496160648   
      0.157988515802   0.157524110935   0.157104583539   0.156731345205   0.15640559794   
      0.1561283495   0.155900427367   0.155722491037   0.155595042382   0.155518433886   
      0.158229445677   0.158255876009   0.158335094294   0.158466881147   0.158650866756   
      0.158886524712   0.159173163494   0.159509915786   0.159895725812   0.160329334973   
      0.160809266112   0.161333806834   0.161900992381   0.162508588649   0.163154076031   
      0.16383463483   0.164547133079   0.165288117635   0.166053809432   0.166840103774   
      0.167642576496   0.168456496695   0.169276846625   0.170098349125   0.170915502739   
      0.171722624424   0.172513899461   0.173283437917   0.174025336731   0.174733746271   
      0.175402940029   0.176027385957   0.176601817907   0.177121305595   0.177581321579   
      0.177977803799   0.178307212411   0.178566579751   0.178753552493   0.178866425216   
      0.1789041648   0.178866425216   0.178753552493   0.178566579751   0.178307212411   
      0.177977803799   0.177581321579   0.177121305595   0.176601817907   0.176027385957   
      0.175402940029   0.174733746271   0.174025336731   0.173283437917   0.172513899461   
      0.171722624424   0.170915502739   0.170098349125   0.169276846625   0.168456496695   
      0.167642576496   0.166840103774   0.166053809432   0.165288117635   0.164547133079   
      0.16383463483   0.163154076031   0.162508588649   0.161900992381   0.161333806834   
      0.160809266112   0.160329334973   0.159895725812   0.159509915786   0.159173163494   
      0.158886524712   0.158650866756   0.158466881147   0.158335094294   0.158255876009   
      0.158229445677   0.158255876009   0.158335094294   0.158466881147   0.158650866756   
      0.158886524712   0.159173163494   0.159509915786   0.159895725812   0.160329334973   
      0.160809266112   0.161333806834   0.161900992381   0.162508588649   0.163154076031   
      0.16383463483   0.164547133079   0.165288117635   0.166053809432   0.166840103774   
      0.167642576496   0.168456496695   0.169276846625   0.170098349125   0.170915502739   
      0.171722624424   0.172513899461   0.173283437917   0.174025336731   0.174733746271   
      0.175402940029   0.176027385957   0.176601817907   0.177121305595   0.177581321579   
      0.177977803799   0.178307212411   0.178566579751   0.178753552493   0.178866425216   
      0.1789041648   0.178866425216   0.178753552493   0.178566579751   0.178307212411   
      0.177977803799   0.177581321579   0.177121305595   0.176601817907   0.176027385957   
      0.175402940029   0.174733746271   0.174025336731   0.173283437917   0.172513899461   
      0.171722624424   0.170915502739   0.170098349125   0.169276846625   0.168456496695   
      0.167642576496   0.166840103774   0.166053809432   0.165288117635   0.164547133079   
      0.16383463483   0.163154076031   0.162508588649   0.161900992381   0.161333806834   
      0.160809266112   0.160329334973   0.159895725812   0.159509915786   0.159173163494   
      0.158886524712   0.158650866756   0.158466881147   0.158335094294   0.158255876009   
      0.155492874625   0.155518433886   0.155595042382   0.155722491037   0.155900427367   
      0.1561283495   0.15640559794   0.156731345205   0.157104583539   0.157524110935   
      0.157988515802   0.158496160648   0.159045165272   0.159633390009   0.160258419679   
      0.160917548963   0.161607769988   0.162325762986   0.163067890874   0.163830198628   
      0.16460841828   0.165397980239   0.166194031574   0.166991461641   0.167784935287   
      0.168568933579   0.169337801735   0.170085803706   0.170807182517   0.171496225322   
      0.172147331853   0.172755084829   0.173314320805   0.173820199853   0.174268272559   
      0.174654542842   0.17497552523   0.175228295399   0.175410532933   0.175520555454   
      0.175557343468   0.175520555454   0.175410532933   0.175228295399   0.17497552523   
      0.174654542842   0.174268272559   0.173820199853   0.173314320805   0.172755084829   
      0.172147331853   0.171496225322   0.170807182517   0.170085803706   0.169337801735   
      0.168568933579   0.167784935287   0.166991461641   0.166194031574   0.165397980239   
      0.16460841828   0.163830198628   0.163067890874   0.162325762986   0.161607769988   
      0.160917548963   0.160258419679   0.159633390009   0.159045165272   0.158496160648   
      0.157988515802   0.157524110935   0.157104583539   0.156731345205   0.15640559794   
      0.1561283495   0.155900427367   0.155722491037   0.155595042382   0.155518433886   
      0.150054746963   0.150078537518   0.150149846381   0.150268484018   0.150434130801   
      0.150646331442   0.150904487327   0.151207846839   0.15155549386   0.151946334649   
      0.15237908338   0.152852246674   0.153364107564   0.153912709361   0.15449584003   
      0.155111017712   0.155755478139   0.156426164702   0.157119722028   0.157832493854   
      0.158560526034   0.159299575397   0.160045125082   0.160792406848   0.161536430619   
      0.162272021355   0.162993863039   0.163696549353   0.164374640306   0.165022723884   
      0.165635481512   0.166207756001   0.166734620468   0.167211446686   0.16763397128   
      0.167998358237   0.168301256273   0.168539849736   0.168711901898   0.168815789646   
      0.168850528821   0.168815789646   0.168711901898   0.168539849736   0.168301256273   
      0.167998358237   0.16763397128   0.167211446686   0.166734620468   0.166207756001   
      0.165635481512   0.165022723884   0.164374640306   0.163696549353   0.162993863039   
      0.162272021355   0.161536430619   0.160792406848   0.160045125082   0.159299575397   
      0.158560526034   0.157832493854   0.157119722028   0.156426164702   0.155755478139   
      0.155111017712   0.15449584003   0.153912709361   0.153364107564   0.152852246674   
      0.15237908338   0.151946334649   0.15155549386   0.151207846839   0.150904487327   
      0.150646331442   0.150434130801   0.150268484018   0.150149846381   0.150078537518   
      0.142061871439   0.142082987743   0.142146282706   0.142251593487   0.142398645381   
      0.142587046908   0.142816283013   0.143085706489   0.143394527729   0.143741802996   
      0.144126421423   0.144547091029   0.14500232409   0.14549042229   0.146009462133   
      0.146557281188   0.147131465793   0.147729340918   0.148347962916   0.14898411593   
      0.149634312697   0.150294800479   0.150961572736   0.151630387091   0.152296789924   
      0.1529561478   0.153603685662   0.154234531524   0.154843767128   0.155426483774   
      0.155977842323   0.156493136159   0.156967855735   0.157397753208   0.157778905629   
      0.15810777511   0.158381264484   0.158596767032   0.158752209022   0.158846083971   
      0.158877477762   0.158846083971   0.158752209022   0.158596767032   0.158381264484   
      0.15810777511   0.157778905629   0.157397753208   0.156967855735   0.156493136159   
      0.155977842323   0.155426483774   0.154843767128   0.154234531524   0.153603685662   
      0.1529561478   0.152296789924   0.151630387091   0.150961572736   0.150294800479   
      0.149634312697   0.14898411593   0.148347962916   0.147729340918   0.147131465793   
      0.146557281188   0.146009462133   0.14549042229   0.14500232409   0.144547091029   
      0.144126421423   0.143741802996   0.143394527729   0.143085706489   0.142816283013   
      0.142587046908   0.142398645381   0.142251593487   0.142146282706   0.142082987743   
      0.131892566354   0.131910200932   0.131963060976   0.132051014597   0.13217383925   
      0.132331217677   0.132522732283   0.132747858006   0.133005953795   0.133296252794   
      0.133617851427   0.133969697568   0.134350578083   0.134759106051   0.135193708064   
      0.135652612039   0.136133836076   0.136635178916   0.13715421262   0.137688278121   
      0.138234484318   0.138789711324   0.139350618511   0.139913657831   0.140475092837   
      0.141031023663   0.14157741802   0.142110148104   0.142625033053   0.143117886377   
      0.143584567566   0.144021036872   0.14442341207   0.144788025873   0.145111482584   
      0.145390712507   0.14562302266   0.1458061424   0.145938262676   0.146018067801   
      0.146044758816   0.146018067801   0.145938262676   0.1458061424   0.14562302266   
      0.145390712507   0.145111482584   0.144788025873   0.14442341207   0.144021036872   
      0.143584567566   0.143117886377   0.142625033053   0.142110148104   0.14157741802   
      0.141031023663   0.140475092837   0.139913657831   0.139350618511   0.138789711324   
      0.138234484318   0.137688278121   0.13715421262   0.136635178916   0.136133836076   
      0.135652612039   0.135193708064   0.134759106051   0.134350578083   0.133969697568   
      0.133617851427   0.133296252794   0.133005953795   0.132747858006   0.132522732283   