<?xml version="1.0"?>
<VTKFile type="ImageData" version="0.1" byte_order="LittleEndian">
  <ImageData WholeExtent="0 79 0 19 0 19" Origin="0 0 0" Spacing="1 1 1">
  <Piece Extent="0 79 0 19 0 19">
    <PointData Scalars="density">
       <DataArray type="Float32" Name="reddensity" NumberOfComponents="1" format="ascii">
      0   0   0   0   0   
      0   0   0   0   0   
      0   0   0   0   0   
      0   0   0   0   0   
      0   0   0   0   0   
      0   0   0   0   0   
      0   0   0   0   0   
      0   0   0   0   0   
      0   0   0   0   0   
      0   0   0   0   0   
      0   0   0   0   0   
      0   0   0   0   0   
      0   0   0   0   0   
      0   0   0   0   0   
      0   0   0   0   0   
      0   0   0   0   0   
      0   0   0   0   0   
      0   0   0   0   0   
      0   0   0   0   0   
      0   0   0   0   0   
      0   0   0   0   0   
      0   0   0   0   0   
      0   0   0   0   0   
      0   0   0   0   0   
      0   0   0   0   0   
      0   0   0   0   0   
      0   0   0   0   0   
      0   0   0   0   0   
      0   0   0   0   0   
      0   0   0   0   0   
      0   0   0   0   0   
      0   0   0   0   0   
      0   0   0   0   0   
      0   0   0   0   0   
      0   0   0   0   0   
      0   0   0   0   0   
      0   0   0   0   0   
      0   0   0   0   0   
      0   0   0   0   0   
      0   0   0   0   0   
      0   0   0   0   0   
      0   0   0   0   0   
      0   0   0   0   0   
      0   0   0   0   0   
      0   0   0   0   0   
      0   0   0   0   0   
      0   0   0   0   0   
      0   0   0   0   0   
      0   0   0   0   0   
      0   0   0   0   0   
      0   0   0   0   0   
      0   0   0   0   0   
      0   0   0   0   0   
      0   0   0   0   0   
      0   0   0   0   0   
      0   0   0   0   0   
      0   0   0   0   0   
      0   0   0   0   0   
      0   0   0   0   0   
      0   0   0   0   0   
      0   0   0   0   0   
      0   0   0   0   0   
      0   0   0   0   0   
      0   0   0   0   0   
      0   0   0   0   0   
      0   0   0   0   0   
      0   0   0   0   0   
      0   0   0   0   0   
      0   0   0   0   0   
      0   0   0   0   0   
      0   0   0   0   0   
      0   0   0   0   0   
      0   0   0   0   0   
      0   0   0   0   0   
      0   0   0   0   0   
      0   0   0   0   0   
      0   0   0   0   0   
      0   0   0   0   0   
      0   0   0   0   0   
      0   0   0   0   0   
      0   0   0   0   0   
      0   0   0   0   0   
      0   0   0   0   0   
      0   0   0   0   0   
      0   0   0   0   0   
      0   0   0   0   0   
      0   0   0   0   0   
      0   0   0   0   0   
      0   0   0   0   0   
      0   0   0   0   0   
      0   0   0   0   0   
      0   0   0   0   0   
      0   0   0   0   0   
      0   0   0   0   0   
      0   0   0   0   0   
      0   0   0   0   0   
      0   0   0   0   0   
      0   0   0   0   0   
      0   0   0   0   0   
      0   0   0   0   0   
      0   0   0   0   0   
      0   0   0   0   0   
      0   0   0   0   0   
      0   0   0   0   0   
      0   0   0   0   0   
      0   0   0   0   0   
      0   0   0   0   0   
      0   0   0   0   0   
      0   0   0   0   0   
      0   0   0   0   0   
      0   0   0   0   0   
      0   0   0   0   0   
      0   0   0   0   0   
      0   0   0   0   0   
      0   0   0   0   0   
      0   0   0   0   0   
      0   0   0   0   0   
      0   0   0   0   0   
      0   0   0   0   0   
      0   0   0   0   0   
      0   0   0   0   0   
      0   0   0   0   0   
      0   0   0   0   0   
      0   0   0   0   0   
      0   0   0   0   0   
      0   0   0   0   0   
      0   0   0   0   0   
      0   0   0   0   0   
      0   0   0   0   0   
      0   0   0   0   0   
      0   0   0   0   0   
      0   0   0   0   0   
      0   0   0   0   0   
      0   0   0   0   0   
      0   0   0   0   0   
      0   0   0   0   0   
      0   0   0   0   0   
      0   0   0   0   0   
      0   0   0   0   0   
      0   0   0   0   0   
      0   0   0   0   0   
      0   0   0   0   0   
      0   0   0   0   0   
      0   0   0   0   0   
      0   0   0   0   0   
      0   0   0   0   0   
      0   0   0   0   0   
      0   0   0   0   0   
      0   0   0   0   0   
      0   0   0   0   0   
      0   0   0   0   0   
      0   0   0   0   0   
      0   0   0   0   0   
      0   0   0   0   0   
      0   0   0   0   0   
      0   0   0   0   0   
      0   0   0   0   0   
      0   0   0   0   0   
      0   0   0   0   0   
      0   0   0   0   0   
      0   0   0   0   0   
      0   0   0   0   0   
      0   0   0   0   0   
      0   0   0   0   0   
      0   0   0   0   0   
      0   0   0   0   0   
      0   0   0   0   0   
      0   0   0   0   0   
      0   0   0   0   0   
      0   0   0   0   0   
      0   0   0   0   0   
      0   0   0   0   0   
      0   0   0   0   0   
      0   0   0   0   0   
      0   0   0   0   0   
      0   0   0   0   0   
      0   0   0   0   0   
      0   0   0   0   0   
      0   0   0   0   0   
      0   0   0   0   0   
      0   0   0   0   0   
      0   0   0   0   0   
      0   0   0   0   0   
      0   0   0   0   0   
      0   0   0   0   0   
      0   0   0   0   0   
      0   0   0   0   0   
      0   0   0   0   0   
      0   0   0   0   0   
      0   0   0   0   0   
      0   0   0   0   0   
      0   0   0   0   0   
      0   0   0   0   0   
      0   0   0   0   0   
      0   0   0   0   0   
      0   0   0   0   0   
      0   0   0   0   0   
      0   0   0   0   0   
      0   0   0   0   0   
      0   0   0   0   0   
      0   0   0   0   0   
      0   0   0   0   0   
      0   0   0   0   0   
      0   0   0   0   0   
      0   0   0   0   0   
      0   0   0   0   0   
      0   0   0   0   0   
      0   0   0   0   0   
      0   0   0   0   0   
      0   0   0   0   0   
      0   0   0   0   0   
      0   0   0   0   0   
      0   0   0   0   0   
      0   0   0   0   0   
      0   0   0   0   0   
      0   0   0   0   0   
      0   0   0   0   0   
      0   0   0   0   0   
      0   0   0   0   0   
      0   0   0   0   0   
      0   0   0   0   0   
      0   0   0   0   0   
      0   0   0   0   0   
      0   0   0   0   0   
      0   0   0   0   0   
      0   0   0   0   0   
      0   0   0   0   0   
      0   0   0   0   0   
      0   0   0   0   0   
      0   0   0   0   0   
      0   0   0   0   0   
      0   0   0   0   0   
      0   0   0   0   0   
      0   0   0   0   0   
      0   0   0   0   0   
      0   0   0   0   0   
      0   0   0   0   0   
      0   0   0   0   0   
      0   0   0   0   0   
      0   0   0   0   0   
      0   0   0   0   0   
      0   0   0   0   0   
      0   0   0   0   0   
      0   0   0   0   0   
      0   0   0   0   0   
      0   0   0   0   0   
      0   0   0   0   0   
      0   0   0   0   0   
      0   0   0   0   0   
      0   0   0   0   0   
      0   0   0   0   0   
      0   0   0   0   0   
      0   0   0   0   0   
      0   0   0   0   0   
      0   0   0   0   0   
      0   0   0   0   0   
      0   0   0   0   0   
      0   0   0   0   0   
      0   0   0   0   0   
      0   0   0   0   0   
      0   0   0   0   0   
      0   0   0   0   0   
      0   0   0   0   0   
      0   0   0   0   0   
      0   0   0   0   0   
      0   0   0   0   0   
      0   0   0   0   0   
      0   0   0   0   0   
      0   0   0   0   0   
      0   0   0   0   0   
      0   0   0   0   0   
      0   0   0   0   0   
      0   0   0   0   0   
      0   0   0   0   0   
      0   0   0   0   0   
      0   0   0   0   0   
      0   0   0   0   0   
      0   0   0   0   0   
      0   0   0   0   0   
      0   0   0   0   0   
      0   0   0   0   0   
      0   0   0   0   0   
      0   0   0   0   0   
      0   0   0   0   0   
      0   0   0   0   0   
      0   0   0   0   0   
      0   0   0   0   0   
      0   0   0   0   0   
      0   0   0   0   0   
      0   0   0   0   0   
      0   0   0   0   0   
      0   0   0   0   0   
      0   0   0   0   0   
      0   0   0   0   0   
      0   0   0   0   0   
      0   0   0   0   0   
      0   0   0   0   0   
      0   0   0   0   0   
      0   0   0   0   0   
      0   0   0   0   0   
      0   0   0   0   0   
      0   0   0   0   0   
      0   0   0   0   0   
      0   0   0   0   0   
      0   0   0   0   0   
      0   0   0   0   0   
      0   0   0   0   0   
      0   0   0   0   0   
      0   0   0   0   0   
      0   0   0   0   0   
      0   0   0   0   0   
      0   0   0   0   0   
      0   0   0   0   0   
      0   0   0   0   0   
      0   0   0   0   0   
      0   0   0   0   0   
      0   0   0   0   0   
      0   0   0   0   0   
      0   0   0   0   0   
      0   0   0   0   0   
      0   0   0   0   0   
      0   0   0   0   0   
      0   0   0   0   0   
      0   0   0   0   0   
      0   0   0   0   0   
      0   0   0   0   0   
      0   0   0   0   0   
      0   0   0   0   0   
      0   0   0   0   0   
      0   0   0   0   0   
      0   0   0   0   0   
      0   0   0   0   0   
      0   0   0   0   0   
      0   0   0   0   0   
      0   0   0   0   0   
      0   0   0   0   0   
      0.0843214155761   0.0843246420886   0.0843343107001   0.0843503885414   0.0843728205266   
      0.084401528904   0.0844364126393   0.0844773466436   0.0845241808637   0.0845767392568   
      0.0846348186748   0.0846981876933   0.0847665854222   0.084839720343   0.0849172692264   
      0.0849988761863   0.0850841519348   0.085172673308   0.0852639831357   0.0853575905296   
      0.085452971666   0.0855495711349   0.0856468039229   0.0857440580858   0.0858406981552   
      0.0859360693067   0.0860295022938   0.0861203191329   0.0862078394926   0.0862913877172   
      0.0863703003833   0.0864439342616   0.0865116745303   0.0865729430647   0.0866272066112   
      0.0866739846429   0.0867128566925   0.0867434689605   0.0867655400122   0.0867788653977   
      0.0867833210556   0.0867788653977   0.0867655400122   0.0867434689605   0.0867128566925   
      0.0866739846429   0.0866272066112   0.0865729430647   0.0865116745303   0.0864439342616   
      0.0863703003833   0.0862913877172   0.0862078394926   0.0861203191329   0.0860295022938   
      0.0859360693067   0.0858406981552   0.0857440580858   0.0856468039229   0.0855495711349   
      0.085452971666   0.0853575905296   0.0852639831357   0.085172673308   0.0850841519348   
      0.0849988761863   0.0849172692264   0.084839720343   0.0847665854222   0.0846981876933   
      0.0846348186748   0.0845767392568   0.0845241808637   0.0844773466436   0.0844364126393   
      0.084401528904   0.0843728205266   0.0843503885414   0.0843343107001   0.0843246420886   
      0.0931750969418   0.0931797265505   0.0931935999581   0.0932166707704   0.093248861205   
      0.0932900614125   0.0933401285439   0.0933988855837   0.0934661199744   0.0935415820643   
      0.0936249834184   0.093715995042   0.0938142455743   0.0939193195185   0.0940307555854   
      0.0941480452375   0.094270631526   0.0943979083259   0.0945292200747   0.0946638621264   
      0.0948010818309   0.0949400804455   0.0950800159738   0.0952200070171   0.0953591376996   
      0.0954964637053   0.0956310194366   0.0957618262647   0.0958879018074   0.0960082701291   
      0.0961219727129   0.0962280800197   0.0963257034094   0.0964140071679   0.0964922203627   
      0.0965596482333   0.096615682818   0.096659812529   0.0966916304048   0.0967108407994   
      0.0967172643107   0.0967108407994   0.0966916304048   0.096659812529   0.096615682818   
      0.0965596482333   0.0964922203627   0.0964140071679   0.0963257034094   0.0962280800197   
      0.0961219727129   0.0960082701291   0.0958879018074   0.0957618262647   0.0956310194366   
      0.0954964637053   0.0953591376996   0.0952200070171   0.0950800159738   0.0949400804455   
      0.0948010818309   0.0946638621264   0.0945292200747   0.0943979083259   0.094270631526   
      0.0941480452375   0.0940307555854   0.0939193195185   0.0938142455743   0.093715995042   
      0.0936249834184   0.0935415820643   0.0934661199744   0.0933988855837   0.0933401285439   
      0.0932900614125   0.093248861205   0.0932166707704   0.0931935999581   0.0931797265505   
      0.108466715537   0.108474280803   0.108496951736   0.108534653499   0.108587260576   
      0.108654595606   0.108736427785   0.108832470854   0.108942380748   0.10906575293   
      0.109202119494   0.109350946122   0.109511628992   0.109683491744   0.109865782648   
      0.110057672107   0.110258250663   0.110466527677   0.110681430854   0.110901806815   
      0.11112642288   0.111353970243   0.111583068703   0.111812273067   0.112040081341   
      0.112264944752   0.112485279607   0.112699480951   0.11290593788   0.113103050355   
      0.113289247253   0.113463005339   0.113622868805   0.113767468942   0.1138955435   
      0.114005955259   0.114097709329   0.114169968716   0.114222067731   0.11425352284   
      0.114264040658   0.11425352284   0.114222067731   0.114169968716   0.114097709329   
      0.114005955259   0.1138955435   0.113767468942   0.113622868805   0.113463005339   
      0.113289247253   0.113103050355   0.11290593788   0.112699480951   0.112485279607   
      0.112264944752   0.112040081341   0.111812273067   0.111583068703   0.111353970243   
      0.11112642288   0.110901806815   0.110681430854   0.110466527677   0.110258250663   
      0.110057672107   0.109865782648   0.109683491744   0.109511628992   0.109350946122   
      0.109202119494   0.10906575293   0.108942380748   0.108832470854   0.108736427785   
      0.108654595606   0.108587260576   0.108534653499   0.108496951736   0.108474280803   
      0.12132562637   0.121336355912   0.121368509162   0.121421979656   0.121496588807   
      0.121592084219   0.121708137366   0.1218443407   0.122000204241   0.122175151745   
      0.122368516552   0.122579537233   0.122807353187   0.123051000364   0.123309407283   
      0.123581391594   0.123865657376   0.124160793443   0.124465272907   0.124777454253   
      0.125095584178   0.125417802435   0.125742148891   0.12606657296   0.12638894555   
      0.126707073552   0.127018716891   0.127321608008   0.127613473609   0.127892058403   
      0.128155150463   0.128400607764   0.128626385382   0.128830562786   0.129011370575   
      0.129167216059   0.129296706999   0.129398672932   0.129472183469   0.129516563103   
      0.129531402091   0.129516563103   0.129472183469   0.129398672932   0.129296706999   
      0.129167216059   0.129011370575   0.128830562786   0.128626385382   0.128400607764   
      0.128155150463   0.127892058403   0.127613473609   0.127321608008   0.127018716891   
      0.126707073552   0.12638894555   0.12606657296   0.125742148891   0.125417802435   
      0.125095584178   0.124777454253   0.124465272907   0.124160793443   0.123865657376   
      0.123581391594   0.123309407283   0.123051000364   0.122807353187   0.122579537233   
      0.122368516552   0.122175151745   0.122000204241   0.1218443407   0.121708137366   
      0.121592084219   0.121496588807   0.121421979656   0.121368509162   0.121336355912   
      0.133434280008   0.133448165285   0.133489774687   0.133558968485   0.133655512311   
      0.133779074962   0.133929225396   0.134105428986   0.134307043131   0.134533312329   
      0.134783362872   0.13505619732   0.135350688957   0.135665576463   0.135999459046   
      0.13635079232   0.136717885235   0.137098898368   0.137491843907   0.137894587647   
      0.138304853312   0.138720229485   0.139138179388   0.139556053699   0.13997110653   
      0.140380514594   0.140781399499   0.141170853025   0.141545965087   0.141903854038   
      0.142241698805   0.142556772314   0.142846475525   0.143108371387   0.143340217948   
      0.143539999856   0.143705957499   0.143836613051   0.143930792784   0.143987645049   
      0.14400665348   0.143987645049   0.143930792784   0.143836613051   0.143705957499   
      0.143539999856   0.143340217948   0.143108371387   0.142846475525   0.142556772314   
      0.142241698805   0.141903854038   0.141545965087   0.141170853025   0.140781399499   
      0.140380514594   0.13997110653   0.139556053699   0.139138179388   0.138720229485   
      0.138304853312   0.137894587647   0.137491843907   0.137098898368   0.136717885235   
      0.13635079232   0.135999459046   0.135665576463   0.135350688957   0.13505619732   
      0.134783362872   0.134533312329   0.134307043131   0.134105428986   0.133929225396   
      0.133779074962   0.133655512311   0.133558968485   0.133489774687   0.133448165285   
      0.143910834699   0.143927442527   0.143977209304   0.144059964367   0.144175421522   
      0.144323176438   0.144502703101   0.144713349403   0.144954331986   0.1452247305   
      0.145523481443   0.145849371814   0.146201032804   0.146576933836   0.146975377234   
      0.147394493891   0.147832240269   0.148286397132   0.148754570366   0.149234194268   
      0.149722537648   0.150216713044   0.150713689304   0.151210307716   0.151703301765   
      0.152189320524   0.152664955542   0.153126771   0.153571336776   0.153995263946   
      0.154395242138   0.15476807808   0.15511073458   0.155420369149   0.155694371435   
      0.15593039864   0.156126408119   0.156280686385   0.156391873871   0.156458984816   
      0.156481421838   0.156458984816   0.156391873871   0.156280686385   0.156126408119   
      0.15593039864   0.155694371435   0.155420369149   0.15511073458   0.15476807808   
      0.154395242138   0.153995263946   0.153571336776   0.153126771   0.152664955542   
      0.152189320524   0.151703301765   0.151210307716   0.150713689304   0.150216713044   
      0.149722537648   0.149234194268   0.148754570366   0.148286397132   0.147832240269   
      0.147394493891   0.146975377234   0.146576933836   0.146201032804   0.145849371814   
      0.145523481443   0.1452247305   0.144954331986   0.144713349403   0.144502703101   
      0.144323176438   0.144175421522   0.144059964367   0.143977209304   0.143927442527   
      0.152139755284   0.152158442874   0.152214440415   0.152307551632   0.152437447445   
      0.152603663097   0.152805594237   0.15304249206   0.153313457665   0.153617435791   
      0.153953208151   0.154319386624   0.154714406573   0.155136520644   0.155583793371   
      0.156054096993   0.15654510888   0.157054310977   0.157578991683   0.158116250546   
      0.158663006143   0.15921600745   0.159771848929   0.160326989487   0.160877775366   
      0.161420466879   0.161951268823   0.162466364246   0.162961951136   0.163434281489   
      0.163879702088   0.16429469627   0.164675925868   0.165020272506   0.165324877369   
      0.165587178625   0.1658049457   0.165976309641   0.166099788928   0.166174310158   
      0.166199223154   0.166174310158   0.166099788928   0.165976309641   0.1658049457   
      0.165587178625   0.165324877369   0.165020272506   0.164675925868   0.16429469627   
      0.163879702088   0.163434281489   0.162961951136   0.162466364246   0.161951268823   
      0.161420466879   0.160877775366   0.160326989487   0.159771848929   0.15921600745   
      0.158663006143   0.158116250546   0.157578991683   0.157054310977   0.15654510888   
      0.156054096993   0.155583793371   0.155136520644   0.154714406573   0.154319386624   
      0.153953208151   0.153617435791   0.153313457665   0.15304249206   0.152805594237   
      0.152603663097   0.152437447445   0.152307551632   0.152214440415   0.152158442874   
      0.157733958072   0.157754013818   0.157814109796   0.157914031598   0.158053419814   
      0.158231767   0.158448413548   0.158702542586   0.158993174065   0.159319158234   
      0.159679168734   0.160071695598   0.16049503847   0.160947300396   0.161426382574   
      0.161929980483   0.162455581808   0.163000466604   0.163561710123   0.1641361887   
      0.164720589068   0.165311421373   0.165905036137   0.16649764526   0.167085347087   
      0.167664155418   0.168230032221   0.168778923691   0.16930679914   0.169809692136   
      0.170283743189   0.170725243197   0.171130676842   0.171496765083   0.171820505883   
      0.172099212363   0.172330547595   0.172512555317   0.172643685968   0.172722817489   
      0.172749270494   0.172722817489   0.172643685968   0.172512555317   0.172330547595   
      0.172099212363   0.171820505883   0.171496765083   0.171130676842   0.170725243197   
      0.170283743189   0.169809692136   0.16930679914   0.168778923691   0.168230032221   
      0.167664155418   0.167085347087   0.16649764526   0.165905036137   0.165311421373   
      0.164720589068   0.1641361887   0.163561710123   0.163000466604   0.162455581808   
      0.161929980483   0.161426382574   0.160947300396   0.16049503847   0.160071695598   
      0.159679168734   0.159319158234   0.158993174065   0.158702542586   0.158448413548   
      0.158231767   0.158053419814   0.157914031598   0.157814109796   0.157754013818   
      0.160547365501   0.16056809237   0.160630198603   0.16073346043   0.160877502795   
      0.161061796244   0.161285652715   0.161548220327   0.161848477366   0.162185225654   
      0.162557083562   0.162962478962   0.163399642444   0.163866601164   0.164361173736   
      0.164880966582   0.165423372188   0.165985569714   0.166564528371   0.167157013988   
      0.167759599117   0.168368676949   0.16898047926   0.169591098483   0.17019651388   
      0.170792621685   0.171375268948   0.17194029066   0.172483549672   0.173000978749   
      0.173488624058   0.173942689285   0.174359579572   0.174735944399   0.175068718583   
      0.175355160584   0.175592887347   0.17577990502   0.175914634916   0.175995934252   
      0.176023111238   0.175995934252   0.175914634916   0.17577990502   0.175592887347   
      0.175355160584   0.175068718583   0.174735944399   0.174359579572   0.173942689285   
      0.173488624058   0.173000978749   0.172483549672   0.17194029066   0.171375268948   
      0.170792621685   0.17019651388   0.169591098483   0.16898047926   0.168368676949   
      0.167759599117   0.167157013988   0.166564528371   0.165985569714   0.165423372188   
      0.164880966582   0.164361173736   0.163866601164   0.163399642444   0.162962478962   
      0.162557083562   0.162185225654   0.161848477366   0.161548220327   0.161285652715   
      0.161061796244   0.160877502795   0.16073346043   0.160630198603   0.16056809237   
      0.160547365501   0.16056809237   0.160630198603   0.16073346043   0.160877502795   
      0.161061796244   0.161285652715   0.161548220327   0.161848477366   0.162185225654   
      0.162557083562   0.162962478962   0.163399642444   0.163866601164   0.164361173736   
      0.164880966582   0.165423372188   0.165985569714   0.166564528371   0.167157013988   
      0.167759599117   0.168368676949   0.16898047926   0.169591098483   0.17019651388   
      0.170792621685   0.171375268948   0.17194029066   0.172483549672   0.173000978749   
      0.173488624058   0.173942689285   0.174359579572   0.174735944399   0.175068718583   
      0.175355160584   0.175592887347   0.17577990502   0.175914634916   0.175995934252   
      0.176023111238   0.175995934252   0.175914634916   0.17577990502   0.175592887347   
      0.175355160584   0.175068718583   0.174735944399   0.174359579572   0.173942689285   
      0.173488624058   0.173000978749   0.172483549672   0.17194029066   0.171375268948   
      0.170792621685   0.17019651388   0.169591098483   0.16898047926   0.168368676949   
      0.167759599117   0.167157013988   0.166564528371   0.165985569714   0.165423372188   
      0.164880966582   0.164361173736   0.163866601164   0.163399642444   0.162962478962   
      0.162557083562   0.162185225654   0.161848477366   0.161548220327   0.161285652715   
      0.161061796244   0.160877502795   0.16073346043   0.160630198603   0.16056809237   
      0.157733958072   0.157754013818   0.157814109796   0.157914031598   0.158053419814   
      0.158231767   0.158448413548   0.158702542586   0.158993174065   0.159319158234   
      0.159679168734   0.160071695598   0.16049503847   0.160947300396   0.161426382574   
      0.161929980483   0.162455581808   0.163000466604   0.163561710123   0.1641361887   
      0.164720589068   0.165311421373   0.165905036137   0.16649764526   0.167085347087   
      0.167664155418   0.168230032221   0.168778923691   0.16930679914   0.169809692136   
      0.170283743189   0.170725243197   0.171130676842   0.171496765083   0.171820505883   
      0.172099212363   0.172330547595   0.172512555317   0.172643685968   0.172722817489   
      0.172749270494   0.172722817489   0.172643685968   0.172512555317   0.172330547595   
      0.172099212363   0.171820505883   0.171496765083   0.171130676842   0.170725243197   
      0.170283743189   0.169809692136   0.16930679914   0.168778923691   0.168230032221   
      0.167664155418   0.167085347087   0.16649764526   0.165905036137   0.165311421373   
      0.164720589068   0.1641361887   0.163561710123   0.163000466604   0.162455581808   
      0.161929980483   0.161426382574   0.160947300396   0.16049503847   0.160071695598   
      0.159679168734   0.159319158234   0.158993174065   0.158702542586   0.158448413548   
      0.158231767   0.158053419814   0.157914031598   0.157814109796   0.157754013818   
      0.152139755284   0.152158442874   0.152214440415   0.152307551632   0.152437447445   
      0.152603663097   0.152805594237   0.15304249206   0.153313457665   0.153617435791   
      0.153953208151   0.154319386624   0.154714406573   0.155136520644   0.155583793371   
      0.156054096993   0.15654510888   0.157054310977   0.157578991683   0.158116250546   
      0.158663006143   0.15921600745   0.159771848929   0.160326989487   0.160877775366   
      0.161420466879   0.161951268823   0.162466364246   0.162961951136   0.163434281489   
      0.163879702088   0.16429469627   0.164675925868   0.165020272506   0.165324877369   
      0.165587178625   0.1658049457   0.165976309641   0.166099788928   0.166174310158   
      0.166199223154   0.166174310158   0.166099788928   0.165976309641   0.1658049457   
      0.165587178625   0.165324877369   0.165020272506   0.164675925868   0.16429469627   
      0.163879702088   0.163434281489   0.162961951136   0.162466364246   0.161951268823   
      0.161420466879   0.160877775366   0.160326989487   0.159771848929   0.15921600745   
      0.158663006143   0.158116250546   0.157578991683   0.157054310977   0.15654510888   
      0.156054096993   0.155583793371   0.155136520644   0.154714406573   0.154319386624   
      0.153953208151   0.153617435791   0.153313457665   0.15304249206   0.152805594237   
      0.152603663097   0.152437447445   0.152307551632   0.152214440415   0.152158442874   
      0.143910834699   0.143927442527   0.143977209304   0.144059964367   0.144175421522   
      0.144323176438   0.144502703101   0.144713349403   0.144954331986   0.1452247305   
      0.145523481443   0.145849371814   0.146201032804   0.146576933836   0.146975377234   
      0.147394493891   0.147832240269   0.148286397132   0.148754570366   0.149234194268   
      0.149722537648   0.150216713044   0.150713689304   0.151210307716   0.151703301765   
      0.152189320524   0.152664955542   0.153126771   0.153571336776   0.153995263946   
      0.154395242138   0.15476807808   0.15511073458   0.155420369149   0.155694371435   
      0.15593039864   0.156126408119   0.156280686385   0.156391873871   0.156458984816   
      0.156481421838   0.156458984816   0.156391873871   0.156280686385   0.156126408119   
      0.15593039864   0.155694371435   0.155420369149   0.15511073458   0.15476807808   
      0.154395242138   0.153995263946   0.153571336776   0.153126771   0.152664955542   
      0.152189320524   0.151703301765   0.151210307716   0.150713689304   0.150216713044   
      0.149722537648   0.149234194268   0.148754570366   0.148286397132   0.147832240269   
      0.147394493891   0.146975377234   0.146576933836   0.146201032804   0.145849371814   
      0.145523481443   0.1452247305   0.144954331986   0.144713349403   0.144502703101   
      0.144323176438   0.144175421522   0.144059964367   0.143977209304   0.143927442527   
      0.133434280008   0.133448165285   0.133489774687   0.133558968485   0.133655512311   
      0.133779074962   0.133929225396   0.134105428986   0.134307043131   0.134533312329   
      0.134783362872   0.13505619732   0.135350688957   0.135665576463   0.135999459046   
      0.13635079232   0.136717885235   0.137098898368   0.137491843907   0.137894587647   
      0.138304853312   0.138720229485   0.139138179388   0.139556053699   0.13997110653   
      0.140380514594   0.140781399499   0.141170853025   0.141545965087   0.141903854038   
      0.142241698805   0.142556772314   0.142846475525   0.143108371387   0.143340217948   
      0.143539999856   0.143705957499   0.143836613051   0.143930792784   0.143987645049   
      0.14400665348   0.143987645049   0.143930792784   0.143836613051   0.143705957499   
      0.143539999856   0.143340217948   0.143108371387   0.142846475525   0.142556772314   
      0.142241698805   0.141903854038   0.141545965087   0.141170853025   0.140781399499   
      0.140380514594   0.13997110653   0.139556053699   0.139138179388   0.138720229485   
      0.138304853312   0.137894587647   0.137491843907   0.137098898368   0.136717885235   
      0.13635079232   0.135999459046   0.135665576463   0.135350688957   0.13505619732   
      0.134783362872   0.134533312329   0.134307043131   0.134105428986   0.133929225396   
      0.133779074962   0.133655512311   0.133558968485   0.133489774687   0.133448165285   