<?xml version="1.0"?>
<VTKFile type="ImageData" version="0.1" byte_order="LittleEndian">
  <ImageData WholeExtent="0 79 0 19 0 19" Origin="0 0 0" Spacing="1 1 1">
  <Piece Extent="0 79 0 19 0 19">
    <PointData Scalars="density">
       <DataArray type="Float32" Name="reddensity" NumberOfComponents="1" format="ascii">
      0   0   0   0   0   
      0   0   0   0   0   
      0   0   0   0   0   
      0   0   0   0   0   
      0   0   0   0   0   
      0   0   0   0   0   
      0   0   0   0   0   
      0   0   0   0   0   
      0   0   0   0   0   
      0   0   0   0   0   
      0   0   0   0   0   
      0   0   0   0   0   
      0   0   0   0   0   
      0   0   0   0   0   
      0   0   0   0   0   
      0   0   0   0   0   
      0   0   0   0   0   
      0   0   0   0   0   
      0   0   0   0   0   
      0   0   0   0   0   
      0   0   0   0   0   
      0   0   0   0   0   
      0   0   0   0   0   
      0   0   0   0   0   
      0   0   0   0   0   
      0   0   0   0   0   
      0   0   0   0   0   
      0   0   0   0   0   
      0   0   0   0   0   
      0   0   0   0   0   
      0   0   0   0   0   
      0   0   0   0   0   
      0   0   0   0   0   
      0   0   0   0   0   
      0   0   0   0   0   
      0   0   0   0   0   
      0   0   0   0   0   
      0   0   0   0   0   
      0   0   0   0   0   
      0   0   0   0   0   
      0   0   0   0   0   
      0   0   0   0   0   
      0   0   0   0   0   
      0   0   0   0   0   
      0   0   0   0   0   
      0   0   0   0   0   
      0   0   0   0   0   
      0   0   0   0   0   
      0   0   0   0   0   
      0   0   0   0   0   
      0   0   0   0   0   
      0   0   0   0   0   
      0   0   0   0   0   
      0   0   0   0   0   
      0   0   0   0   0   
      0   0   0   0   0   
      0   0   0   0   0   
      0   0   0   0   0   
      0   0   0   0   0   
      0   0   0   0   0   
      0   0   0   0   0   
      0   0   0   0   0   
      0   0   0   0   0   
      0   0   0   0   0   
      0   0   0   0   0   
      0   0   0   0   0   
      0   0   0   0   0   
      0   0   0   0   0   
      0   0   0   0   0   
      0   0   0   0   0   
      0   0   0   0   0   
      0   0   0   0   0   
      0   0   0   0   0   
      0   0   0   0   0   
      0   0   0   0   0   
      0   0   0   0   0   
      0   0   0   0   0   
      0   0   0   0   0   
      0   0   0   0   0   
      0   0   0   0   0   
      0   0   0   0   0   
      0   0   0   0   0   
      0   0   0   0   0   
      0   0   0   0   0   
      0   0   0   0   0   
      0   0   0   0   0   
      0   0   0   0   0   
      0   0   0   0   0   
      0   0   0   0   0   
      0   0   0   0   0   
      0   0   0   0   0   
      0   0   0   0   0   
      0   0   0   0   0   
      0   0   0   0   0   
      0   0   0   0   0   
      0   0   0   0   0   
      0   0   0   0   0   
      0   0   0   0   0   
      0   0   0   0   0   
      0   0   0   0   0   
      0   0   0   0   0   
      0   0   0   0   0   
      0   0   0   0   0   
      0   0   0   0   0   
      0   0   0   0   0   
      0   0   0   0   0   
      0   0   0   0   0   
      0   0   0   0   0   
      0   0   0   0   0   
      0   0   0   0   0   
      0   0   0   0   0   
      0   0   0   0   0   
      0   0   0   0   0   
      0   0   0   0   0   
      0   0   0   0   0   
      0   0   0   0   0   
      0   0   0   0   0   
      0   0   0   0   0   
      0   0   0   0   0   
      0   0   0   0   0   
      0   0   0   0   0   
      0   0   0   0   0   
      0   0   0   0   0   
      0   0   0   0   0   
      0   0   0   0   0   
      0   0   0   0   0   
      0   0   0   0   0   
      0   0   0   0   0   
      0   0   0   0   0   
      0   0   0   0   0   
      0   0   0   0   0   
      0   0   0   0   0   
      0   0   0   0   0   
      0   0   0   0   0   
      0   0   0   0   0   
      0   0   0   0   0   
      0   0   0   0   0   
      0   0   0   0   0   
      0   0   0   0   0   
      0   0   0   0   0   
      0   0   0   0   0   
      0   0   0   0   0   
      0   0   0   0   0   
      0   0   0   0   0   
      0   0   0   0   0   
      0   0   0   0   0   
      0   0   0   0   0   
      0   0   0   0   0   
      0   0   0   0   0   
      0   0   0   0   0   
      0   0   0   0   0   
      0   0   0   0   0   
      0   0   0   0   0   
      0   0   0   0   0   
      0   0   0   0   0   
      0   0   0   0   0   
      0   0   0   0   0   
      0   0   0   0   0   
      0   0   0   0   0   
      0   0   0   0   0   
      0   0   0   0   0   
      0   0   0   0   0   
      0   0   0   0   0   
      0   0   0   0   0   
      0   0   0   0   0   
      0   0   0   0   0   
      0   0   0   0   0   
      0   0   0   0   0   
      0   0   0   0   0   
      0   0   0   0   0   
      0   0   0   0   0   
      0   0   0   0   0   
      0   0   0   0   0   
      0   0   0   0   0   
      0   0   0   0   0   
      0   0   0   0   0   
      0   0   0   0   0   
      0   0   0   0   0   
      0   0   0   0   0   
      0   0   0   0   0   
      0   0   0   0   0   
      0   0   0   0   0   
      0   0   0   0   0   
      0   0   0   0   0   
      0   0   0   0   0   
      0   0   0   0   0   
      0   0   0   0   0   
      0   0   0   0   0   
      0   0   0   0   0   
      0   0   0   0   0   
      0   0   0   0   0   
      0   0   0   0   0   
      0   0   0   0   0   
      0   0   0   0   0   
      0   0   0   0   0   
      0   0   0   0   0   
      0   0   0   0   0   
      0   0   0   0   0   
      0   0   0   0   0   
      0   0   0   0   0   
      0   0   0   0   0   
      0   0   0   0   0   
      0   0   0   0   0   
      0   0   0   0   0   
      0   0   0   0   0   
      0   0   0   0   0   
      0   0   0   0   0   
      0   0   0   0   0   
      0   0   0   0   0   
      0   0   0   0   0   
      0   0   0   0   0   
      0   0   0   0   0   
      0   0   0   0   0   
      0   0   0   0   0   
      0   0   0   0   0   
      0   0   0   0   0   
      0   0   0   0   0   
      0   0   0   0   0   
      0   0   0   0   0   
      0   0   0   0   0   
      0   0   0   0   0   
      0   0   0   0   0   
      0   0   0   0   0   
      0   0   0   0   0   
      0   0   0   0   0   
      0   0   0   0   0   
      0   0   0   0   0   
      0   0   0   0   0   
      0   0   0   0   0   
      0   0   0   0   0   
      0   0   0   0   0   
      0   0   0   0   0   
      0   0   0   0   0   
      0   0   0   0   0   
      0   0   0   0   0   
      0   0   0   0   0   
      0   0   0   0   0   
      0   0   0   0   0   
      0   0   0   0   0   
      0   0   0   0   0   
      0   0   0   0   0   
      0   0   0   0   0   
      0   0   0   0   0   
      0   0   0   0   0   
      0   0   0   0   0   
      0   0   0   0   0   
      0   0   0   0   0   
      0   0   0   0   0   
      0   0   0   0   0   
      0   0   0   0   0   
      0   0   0   0   0   
      0   0   0   0   0   
      0   0   0   0   0   
      0   0   0   0   0   
      0   0   0   0   0   
      0   0   0   0   0   
      0   0   0   0   0   
      0   0   0   0   0   
      0   0   0   0   0   
      0   0   0   0   0   
      0   0   0   0   0   
      0   0   0   0   0   
      0   0   0   0   0   
      0   0   0   0   0   
      0   0   0   0   0   
      0   0   0   0   0   
      0   0   0   0   0   
      0   0   0   0   0   
      0   0   0   0   0   
      0   0   0   0   0   
      0   0   0   0   0   
      0   0   0   0   0   
      0   0   0   0   0   
      0   0   0   0   0   
      0   0   0   0   0   
      0   0   0   0   0   
      0   0   0   0   0   
      0   0   0   0   0   
      0   0   0   0   0   
      0   0   0   0   0   
      0   0   0   0   0   
      0   0   0   0   0   
      0   0   0   0   0   
      0   0   0   0   0   
      0   0   0   0   0   
      0   0   0   0   0   
      0   0   0   0   0   
      0   0   0   0   0   
      0   0   0   0   0   
      0   0   0   0   0   
      0   0   0   0   0   
      0   0   0   0   0   
      0   0   0   0   0   
      0   0   0   0   0   
      0   0   0   0   0   
      0   0   0   0   0   
      0   0   0   0   0   
      0   0   0   0   0   
      0   0   0   0   0   
      0   0   0   0   0   
      0   0   0   0   0   
      0   0   0   0   0   
      0   0   0   0   0   
      0   0   0   0   0   
      0   0   0   0   0   
      0   0   0   0   0   
      0   0   0   0   0   
      0   0   0   0   0   
      0   0   0   0   0   
      0   0   0   0   0   
      0   0   0   0   0   
      0   0   0   0   0   
      0   0   0   0   0   
      0   0   0   0   0   
      0   0   0   0   0   
      0   0   0   0   0   
      0   0   0   0   0   
      0   0   0   0   0   
      0   0   0   0   0   
      0   0   0   0   0   
      0   0   0   0   0   
      0   0   0   0   0   
      0   0   0   0   0   
      0   0   0   0   0   
      0   0   0   0   0   
      0   0   0   0   0   
      0   0   0   0   0   
      0   0   0   0   0   
      0   0   0   0   0   
      0   0   0   0   0   
      0   0   0   0   0   
      0   0   0   0   0   
      0   0   0   0   0   
      0   0   0   0   0   
      0   0   0   0   0   
      0   0   0   0   0   
      0.0847842982333   0.0847862932401   0.0847922693062   0.0848021995552   0.084816039149   
      0.0848337252253   0.0848551768182   0.0848802947686   0.0849089616362   0.0849410416224   
      0.0849763805207   0.0850148057085   0.0850561261989   0.0851001327721   0.0851465982046   
      0.0851952776202   0.0852459089813   0.0852982137442   0.0853518976969   0.0854066519989   
      0.08546215444   0.0855180709303   0.0855740572309   0.0856297609308   0.0856848236667   
      0.0857388835812   0.0857915780015   0.0858425463211   0.0858914330526   0.085937891017   
      0.0859815846279   0.086022193219   0.0860594143638   0.0860929671285   0.0861225951974   
      0.086148069811   0.0861691924566   0.0861857972548   0.0861977529898   0.0862049647391   
      0.0862073750646   0.0862049647391   0.0861977529898   0.0861857972548   0.0861691924566   
      0.086148069811   0.0861225951974   0.0860929671285   0.0860594143638   0.086022193219   
      0.0859815846279   0.085937891017   0.0858914330526   0.0858425463211   0.0857915780015   
      0.0857388835812   0.0856848236667   0.0856297609308   0.0855740572309   0.0855180709303   
      0.08546215444   0.0854066519989   0.0853518976969   0.0852982137442   0.0852459089813   
      0.0851952776202   0.0851465982046   0.0851001327721   0.0850561261989   0.0850148057085   
      0.0849763805207   0.0849410416224   0.0849089616362   0.0848802947686   0.0848551768182   
      0.0848337252253   0.084816039149   0.0848021995552   0.0847922693062   0.0847862932401   
      0.0938418107847   0.0938446771552   0.0938532634863   0.093867531415   0.0938874169313   
      0.0939128302764   0.093943655812   0.0939797518714   0.0940209506074   0.0940670578557   
      0.0941178530327   0.0941730890922   0.0942324925679   0.0942957637283   0.0943625768749   
      0.094432580815   0.0945053995404   0.0945806331427   0.0946578589968   0.0947366332388   
      0.0948164925622   0.094896956354   0.0949775291815   0.0950577036389   0.0951369635496   
      0.0952147875153   0.0952906527902   0.0953640394483   0.095434434803   0.0955013380267   
      0.0955642649065   0.0956227526672   0.0956763647813   0.0957246956828   0.0957673752977   
      0.0958040733021   0.0958345030218   0.0958584248907   0.0958756493937   0.0958860394282   
      0.0958895120304   0.0958860394282   0.0958756493937   0.0958584248907   0.0958345030218   
      0.0958040733021   0.0957673752977   0.0957246956828   0.0956763647813   0.0956227526672   
      0.0955642649065   0.0955013380267   0.095434434803   0.0953640394483   0.0952906527902   
      0.0952147875153   0.0951369635496   0.0950577036389   0.0949775291815   0.094896956354   
      0.0948164925622   0.0947366332388   0.0946578589968   0.0945806331427   0.0945053995404   
      0.094432580815   0.0943625768749   0.0942957637283   0.0942324925679   0.0941730890922   
      0.0941178530327   0.0940670578557   0.0940209506074   0.0939797518714   0.093943655812   
      0.0939128302764   0.0938874169313   0.093867531415   0.0938532634863   0.0938446771552   
      0.109560256605   0.109564945275   0.109578990472   0.10960232972   0.109634858764   
      0.109676431385   0.109726859167   0.109785911221   0.10985331391   0.109928750583   
      0.110011861374   0.110102243095   0.110199449261   0.110302990314   0.110412334071   
      0.110526906473   0.110646092671   0.110769238505   0.11089565243   0.111024607931   
      0.11115534647   0.111287080986   0.111418999986   0.111550272226   0.111680051981   
      0.111807484882   0.11193171429   0.112051888149   0.112167166252   0.112276727827   
      0.112379779351   0.112475562459   0.112563361835   0.112642512936   0.11271240941   
      0.112772510069   0.112822345264   0.112861522547   0.112889731473   0.112906747463   
      0.112912434623   0.112906747463   0.112889731473   0.112861522547   0.112822345264   
      0.112772510069   0.11271240941   0.112642512936   0.112563361835   0.112475562459   
      0.112379779351   0.112276727827   0.112167166252   0.112051888149   0.11193171429   
      0.111807484882   0.111680051981   0.111550272226   0.111418999986   0.111287080986   
      0.11115534647   0.111024607931   0.11089565243   0.110769238505   0.110646092671   
      0.110526906473   0.110412334071   0.110302990314   0.110199449261   0.110102243095   
      0.110011861374   0.109928750583   0.10985331391   0.109785911221   0.109726859167   
      0.109676431385   0.109634858764   0.10960232972   0.109578990472   0.109564945275   
      0.122880159898   0.122886807689   0.122906721461   0.122939812357   0.122985932097   
      0.123044872721   0.123116366252   0.123200084317   0.123295637753   0.123402576247   
      0.123520388061   0.123648499898   0.123786276972   0.123933023348   0.124087982636   
      0.124250339093   0.124419219224   0.12459369395   0.124772781411   0.124955450464   
      0.125140624937   0.125327188677   0.125513991414   0.125699855464   0.125883583242   
      0.126063965576   0.126239790753   0.126409854219   0.126572968847   0.126727975624   
      0.126873754632   0.127009236152   0.127133411706   0.127245344853   0.127344181536   
      0.127429159793   0.127499618625   0.127555005856   0.1275948848   0.127618939616   
      0.127626979209   0.127618939616   0.1275948848   0.127555005856   0.127499618625   
      0.127429159793   0.127344181536   0.127245344853   0.127133411706   0.127009236152   
      0.126873754632   0.126727975624   0.126572968847   0.126409854219   0.126239790753   
      0.126063965576   0.125883583242   0.125699855464   0.125513991414   0.125327188677   
      0.125140624937   0.124955450464   0.124772781411   0.12459369395   0.124419219224   
      0.124250339093   0.124087982636   0.123933023348   0.123786276972   0.123648499898   
      0.123520388061   0.123402576247   0.123295637753   0.123200084317   0.123116366252   
      0.123044872721   0.122985932097   0.122939812357   0.122906721461   0.122886807689   
      0.135448636921   0.135457229583   0.135482968988   0.135525739331   0.135585347377   
      0.135661522154   0.135753914545   0.135862096839   0.135985562279   0.136123724657   
      0.136275918039   0.136441396686   0.136619335249   0.136808829337   0.137008896539   
      0.137218478009   0.137436440687   0.137661580275   0.137892625022   0.138128240425   
      0.138367034885   0.138607566378   0.138848350169   0.139087867566   0.139324575709   
      0.139556918328   0.139783337413   0.140002285678   0.140212239695   0.140411713528   
      0.140599272683   0.140773548173   0.140933250461   0.14107718306   0.141204255527   
      0.141313495631   0.141404060446   0.141475246157   0.14152649638   0.141557408815   
      0.141567740109   0.141557408815   0.14152649638   0.141475246157   0.141404060446   
      0.141313495631   0.141204255527   0.14107718306   0.140933250461   0.140773548173   
      0.140599272683   0.140411713528   0.140212239695   0.140002285678   0.139783337413   
      0.139556918328   0.139324575709   0.139087867566   0.138848350169   0.138607566378   
      0.138367034885   0.138128240425   0.137892625022   0.137661580275   0.137436440687   
      0.137218478009   0.137008896539   0.136808829337   0.136619335249   0.136441396686   
      0.136275918039   0.136123724657   0.135985562279   0.135862096839   0.135753914545   
      0.135661522154   0.135585347377   0.135525739331   0.135482968988   0.135457229583   
      0.146321483577   0.146331742549   0.146362472871   0.146413534687   0.146484694669   
      0.14657562568   0.146685906363   0.146815020677   0.146962357454   0.147127210048   
      0.147308776139   0.147506157805   0.147718361942   0.147944301145   0.148182795156   
      0.148432572989   0.148692275841   0.148960460895   0.149235606106   0.149516116054   
      0.149800328937   0.150086524741   0.150372934623   0.150657751489   0.150939141751   
      0.151215258177   0.151484253761   0.151744296463   0.151993584665   0.152230363153   
      0.152452939401   0.152659699922   0.152849126427   0.153019811519   0.153170473661   
      0.153299971139   0.153407314768   0.153491679094   0.153552411881   0.153589041698   
      0.15360128344   0.153589041698   0.153552411881   0.153491679094   0.153407314768   
      0.153299971139   0.153170473661   0.153019811519   0.152849126427   0.152659699922   
      0.152452939401   0.152230363153   0.151993584665   0.151744296463   0.151484253761   
      0.151215258177   0.150939141751   0.150657751489   0.150372934623   0.150086524741   
      0.149800328937   0.149516116054   0.149235606106   0.148960460895   0.148692275841   
      0.148432572989   0.148182795156   0.147944301145   0.147718361942   0.147506157805   
      0.147308776139   0.147127210048   0.146962357454   0.146815020677   0.146685906363   
      0.14657562568   0.146484694669   0.146413534687   0.146362472871   0.146331742549   
      0.154852572195   0.154864093775   0.154898605562   0.154955948633   0.155035857881   
      0.155137961702   0.1552617816   0.155406731768   0.15557211872   0.155757141031   
      0.155960889299   0.156182346418   0.156420388266   0.156673784939   0.156941202634   
      0.157221206314   0.157512263261   0.157812747639   0.158120946154   0.158435064905   
      0.158753237492   0.159073534415   0.159393973787   0.159712533346   0.160027163717   
      0.160335802839   0.16063639145   0.160926889469   0.161205293094   0.161469652414   
      0.161718089268   0.161948815123   0.162160148669   0.162350532861   0.162518551115   
      0.162662942378   0.162782614808   0.162876657811   0.162944352214   0.162985178387   
      0.162998822153   0.162985178387   0.162944352214   0.162876657811   0.162782614808   
      0.162662942378   0.162518551115   0.162350532861   0.162160148669   0.161948815123   
      0.161718089268   0.161469652414   0.161205293094   0.160926889469   0.16063639145   
      0.160335802839   0.160027163717   0.159712533346   0.159393973787   0.159073534415   
      0.158753237492   0.158435064905   0.158120946154   0.157812747639   0.157512263261   
      0.157221206314   0.156941202634   0.156673784939   0.156420388266   0.156182346418   
      0.155960889299   0.155757141031   0.15557211872   0.155406731768   0.1552617816   
      0.155137961702   0.155035857881   0.154955948633   0.154898605562   0.154864093775   
      0.160645131445   0.160657477014   0.160694456439   0.160755897807   0.16084151438   
      0.160950904307   0.161083550264   0.161238819107   0.161415961571   0.161614112138   
      0.161832289141   0.16206939523   0.162324218303   0.162595433039   0.162881603146   
      0.163181184446   0.16349252894   0.163813889935   0.164143428363   0.16447922035   
      0.164819266116   0.165161500231   0.165503803243   0.165844014647   0.16617994714   
      0.166509402064   0.166830185913   0.167140127732   0.167437097214   0.167719023268   
      0.1679839128   0.168229869449   0.16845511197   0.168657992006   0.16883701092   
      0.168990835438   0.169118311805   0.169218478236   0.169290575406   0.16933405483   
      0.169348584949   0.16933405483   0.169290575406   0.169218478236   0.169118311805   
      0.168990835438   0.16883701092   0.168657992006   0.16845511197   0.168229869449   
      0.1679839128   0.167719023268   0.167437097214   0.167140127732   0.166830185913   
      0.166509402064   0.16617994714   0.165844014647   0.165503803243   0.165161500231   
      0.164819266116   0.16447922035   0.164143428363   0.163813889935   0.16349252894   
      0.163181184446   0.162881603146   0.162595433039   0.162324218303   0.16206939523   
      0.161832289141   0.161614112138   0.161415961571   0.161238819107   0.161083550264   
      0.160950904307   0.16084151438   0.160755897807   0.160694456439   0.160657477014   
      0.16355567364   0.163568421004   0.163606603636   0.163670043091   0.163758441759   
      0.163871382592   0.164008328779   0.164168623431   0.164351489344   0.164556028933   
      0.164781224432   0.165025938471   0.165288915156   0.165568781769   0.165864051217   
      0.166173125364   0.166494299357   0.166825767076   0.167165627783   0.16751189408   
      0.167862501213   0.168215317767   0.168568157753   0.168918794052   0.169264973159   
      0.169604431113   0.169934910493   0.170254178294   0.170560044476   0.17085038097   
      0.171123140865   0.171376377509   0.171608263237   0.171817107428   0.172001373604   
      0.172159695285   0.172290890338   0.172393973565   0.172468167321   0.172512909972   
      0.172527862047   0.172512909972   0.172468167321   0.172393973565   0.172290890338   
      0.172159695285   0.172001373604   0.171817107428   0.171608263237   0.171376377509   
      0.171123140865   0.17085038097   0.170560044476   0.170254178294   0.169934910493   
      0.169604431113   0.169264973159   0.168918794052   0.168568157753   0.168215317767   
      0.167862501213   0.16751189408   0.167165627783   0.166825767076   0.166494299357   
      0.166173125364   0.165864051217   0.165568781769   0.165288915156   0.165025938471   
      0.164781224432   0.164556028933   0.164351489344   0.164168623431   0.164008328779   
      0.163871382592   0.163758441759   0.163670043091   0.163606603636   0.163568421004   
      0.16355567364   0.163568421004   0.163606603636   0.163670043091   0.163758441759   
      0.163871382592   0.164008328779   0.164168623431   0.164351489344   0.164556028933   
      0.164781224432   0.165025938471   0.165288915156   0.165568781769   0.165864051217   
      0.166173125364   0.166494299357   0.166825767076   0.167165627783   0.16751189408   
      0.167862501213   0.168215317767   0.168568157753   0.168918794052   0.169264973159   
      0.169604431113   0.169934910493   0.170254178294   0.170560044476   0.17085038097   
      0.171123140865   0.171376377509   0.171608263237   0.171817107428   0.172001373604   
      0.172159695285   0.172290890338   0.172393973565   0.172468167321   0.172512909972   
      0.172527862047   0.172512909972   0.172468167321   0.172393973565   0.172290890338   
      0.172159695285   0.172001373604   0.171817107428   0.171608263237   0.171376377509   
      0.171123140865   0.17085038097   0.170560044476   0.170254178294   0.169934910493   
      0.169604431113   0.169264973159   0.168918794052   0.168568157753   0.168215317767   
      0.167862501213   0.16751189408   0.167165627783   0.166825767076   0.166494299357   
      0.166173125364   0.165864051217   0.165568781769   0.165288915156   0.165025938471   
      0.164781224432   0.164556028933   0.164351489344   0.164168623431   0.164008328779   
      0.163871382592   0.163758441759   0.163670043091   0.163606603636   0.163568421004   
      0.160645131445   0.160657477014   0.160694456439   0.160755897807   0.16084151438   
      0.160950904307   0.161083550264   0.161238819107   0.161415961571   0.161614112138   
      0.161832289141   0.16206939523   0.162324218303   0.162595433039   0.162881603146   
      0.163181184446   0.16349252894   0.163813889935   0.164143428363   0.16447922035   
      0.164819266116   0.165161500231   0.165503803243   0.165844014647   0.16617994714   
      0.166509402064   0.166830185913   0.167140127732   0.167437097214   0.167719023268   
      0.1679839128   0.168229869449   0.16845511197   0.168657992006   0.16883701092   
      0.168990835438   0.169118311805   0.169218478236   0.169290575406   0.16933405483   
      0.169348584949   0.16933405483   0.169290575406   0.169218478236   0.169118311805   
      0.168990835438   0.16883701092   0.168657992006   0.16845511197   0.168229869449   
      0.1679839128   0.167719023268   0.167437097214   0.167140127732   0.166830185913   
      0.166509402064   0.16617994714   0.165844014647   0.165503803243   0.165161500231   
      0.164819266116   0.16447922035   0.164143428363   0.163813889935   0.16349252894   
      0.163181184446   0.162881603146   0.162595433039   0.162324218303   0.16206939523   
      0.161832289141   0.161614112138   0.161415961571   0.161238819107   0.161083550264   
      0.160950904307   0.16084151438   0.160755897807   0.160694456439   0.160657477014   
      0.154852572195   0.154864093775   0.154898605562   0.154955948633   0.155035857881   
      0.155137961702   0.1552617816   0.155406731768   0.15557211872   0.155757141031   
      0.155960889299   0.156182346418   0.156420388266   0.156673784939   0.156941202634   
      0.157221206314   0.157512263261   0.157812747639   0.158120946154   0.158435064905   
      0.158753237492   0.159073534415   0.159393973787   0.159712533346   0.160027163717   
      0.160335802839   0.16063639145   0.160926889469   0.161205293094   0.161469652414   
      0.161718089268   0.161948815123   0.162160148669   0.162350532861   0.162518551115   
      0.162662942378   0.162782614808   0.162876657811   0.162944352214   0.162985178387   
      0.162998822153   0.162985178387   0.162944352214   0.162876657811   0.162782614808   
      0.162662942378   0.162518551115   0.162350532861   0.162160148669   0.161948815123   
      0.161718089268   0.161469652414   0.161205293094   0.160926889469   0.16063639145   
      0.160335802839   0.160027163717   0.159712533346   0.159393973787   0.159073534415   
      0.158753237492   0.158435064905   0.158120946154   0.157812747639   0.157512263261   
      0.157221206314   0.156941202634   0.156673784939   0.156420388266   0.156182346418   
      0.155960889299   0.155757141031   0.15557211872   0.155406731768   0.1552617816   
      0.155137961702   0.155035857881   0.154955948633   0.154898605562   0.154864093775   
      0.146321483577   0.146331742549   0.146362472871   0.146413534687   0.146484694669   
      0.14657562568   0.146685906363   0.146815020677   0.146962357454   0.147127210048   
      0.147308776139   0.147506157805   0.147718361942   0.147944301145   0.148182795156   
      0.148432572989   0.148692275841   0.148960460895   0.149235606106   0.149516116054   
      0.149800328937   0.150086524741   0.150372934623   0.150657751489   0.150939141751   
      0.151215258177   0.151484253761   0.151744296463   0.151993584665   0.152230363153   
      0.152452939401   0.152659699922   0.152849126427   0.153019811519   0.153170473661   
      0.153299971139   0.153407314768   0.153491679094   0.153552411881   0.153589041698   
      0.15360128344   0.153589041698   0.153552411881   0.153491679094   0.153407314768   
      0.153299971139   0.153170473661   0.153019811519   0.152849126427   0.152659699922   
      0.152452939401   0.152230363153   0.151993584665   0.151744296463   0.151484253761   
      0.151215258177   0.150939141751   0.150657751489   0.150372934623   0.150086524741   
      0.149800328937   0.149516116054   0.149235606106   0.148960460895   0.148692275841   
      0.148432572989   0.148182795156   0.147944301145   0.147718361942   0.147506157805   
      0.147308776139   0.147127210048   0.146962357454   0.146815020677   0.146685906363   
      0.14657562568   0.146484694669   0.146413534687   0.146362472871   0.146331742549   
      0.135448636921   0.135457229583   0.135482968988   0.135525739331   0.135585347377   
      0.135661522154   0.135753914545   0.135862096839   0.135985562279   0.136123724657   
      0.136275918039   0.136441396686   0.136619335249   0.136808829337   0.137008896539   
      0.137218478009   0.137436440687   0.137661580275   0.137892625022   0.138128240425   
      0.138367034885   0.138607566378   0.138848350169   0.139087867566   0.139324575709   
      0.139556918328   0.139783337413   0.140002285678   0.140212239695   0.140411713528   
      0.140599272683   0.140773548173   0.140933250461   0.14107718306   0.141204255527   
      0.141313495631   0.141404060446   0.141475246157   0.14152649638   0.141557408815   
      0.141567740109   0.141557408815   0.14152649638   0.141475246157   0.141404060446   
      0.141313495631   0.141204255527   0.14107718306   0.140933250461   0.140773548173   
      0.140599272683   0.140411713528   0.140212239695   0.140002285678   0.139783337413   
      0.139556918328   0.139324575709   0.139087867566   0.138848350169   0.138607566378   
      0.138367034885   0.138128240425   0.137892625022   0.137661580275   0.137436440687   
      0.137218478009   0.137008896539   0.136808829337   0.136619335249   0.136441396686   
      0.136275918039   0.136123724657   0.135985562279   0.135862096839   0.135753914545   