<?xml version="1.0"?>
<VTKFile type="ImageData" version="0.1" byte_order="LittleEndian">
  <ImageData WholeExtent="0 79 0 19 0 19" Origin="0 0 0" Spacing="1 1 1">
  <Piece Extent="0 79 0 19 0 19">
    <PointData Scalars="density">
       <DataArray type="Float32" Name="reddensity" NumberOfComponents="1" format="ascii">
      0   0   0   0   0   
      0   0   0   0   0   
      0   0   0   0   0   
      0   0   0   0   0   
      0   0   0   0   0   
      0   0   0   0   0   
      0   0   0   0   0   
      0   0   0   0   0   
      0   0   0   0   0   
      0   0   0   0   0   
      0   0   0   0   0   
      0   0   0   0   0   
      0   0   0   0   0   
      0   0   0   0   0   
      0   0   0   0   0   
      0   0   0   0   0   
      0   0   0   0   0   
      0   0   0   0   0   
      0   0   0   0   0   
      0   0   0   0   0   
      0   0   0   0   0   
      0   0   0   0   0   
      0   0   0   0   0   
      0   0   0   0   0   
      0   0   0   0   0   
      0   0   0   0   0   
      0   0   0   0   0   
      0   0   0   0   0   
      0   0   0   0   0   
      0   0   0   0   0   
      0   0   0   0   0   
      0   0   0   0   0   
      0   0   0   0   0   
      0   0   0   0   0   
      0   0   0   0   0   
      0   0   0   0   0   
      0   0   0   0   0   
      0   0   0   0   0   
      0   0   0   0   0   
      0   0   0   0   0   
      0   0   0   0   0   
      0   0   0   0   0   
      0   0   0   0   0   
      0   0   0   0   0   
      0   0   0   0   0   
      0   0   0   0   0   
      0   0   0   0   0   
      0   0   0   0   0   
      0   0   0   0   0   
      0   0   0   0   0   
      0   0   0   0   0   
      0   0   0   0   0   
      0   0   0   0   0   
      0   0   0   0   0   
      0   0   0   0   0   
      0   0   0   0   0   
      0   0   0   0   0   
      0   0   0   0   0   
      0   0   0   0   0   
      0   0   0   0   0   
      0   0   0   0   0   
      0   0   0   0   0   
      0   0   0   0   0   
      0   0   0   0   0   
      0   0   0   0   0   
      0   0   0   0   0   
      0   0   0   0   0   
      0   0   0   0   0   
      0   0   0   0   0   
      0   0   0   0   0   
      0   0   0   0   0   
      0   0   0   0   0   
      0   0   0   0   0   
      0   0   0   0   0   
      0   0   0   0   0   
      0   0   0   0   0   
      0   0   0   0   0   
      0   0   0   0   0   
      0   0   0   0   0   
      0   0   0   0   0   
      0   0   0   0   0   
      0   0   0   0   0   
      0   0   0   0   0   
      0   0   0   0   0   
      0   0   0   0   0   
      0   0   0   0   0   
      0   0   0   0   0   
      0   0   0   0   0   
      0   0   0   0   0   
      0   0   0   0   0   
      0   0   0   0   0   
      0   0   0   0   0   
      0   0   0   0   0   
      0   0   0   0   0   
      0   0   0   0   0   
      0   0   0   0   0   
      0   0   0   0   0   
      0   0   0   0   0   
      0   0   0   0   0   
      0   0   0   0   0   
      0   0   0   0   0   
      0   0   0   0   0   
      0   0   0   0   0   
      0   0   0   0   0   
      0   0   0   0   0   
      0   0   0   0   0   
      0   0   0   0   0   
      0   0   0   0   0   
      0   0   0   0   0   
      0   0   0   0   0   
      0   0   0   0   0   
      0   0   0   0   0   
      0   0   0   0   0   
      0   0   0   0   0   
      0   0   0   0   0   
      0   0   0   0   0   
      0   0   0   0   0   
      0   0   0   0   0   
      0   0   0   0   0   
      0   0   0   0   0   
      0   0   0   0   0   
      0   0   0   0   0   
      0   0   0   0   0   
      0   0   0   0   0   
      0   0   0   0   0   
      0   0   0   0   0   
      0   0   0   0   0   
      0   0   0   0   0   
      0   0   0   0   0   
      0   0   0   0   0   
      0   0   0   0   0   
      0   0   0   0   0   
      0   0   0   0   0   
      0   0   0   0   0   
      0   0   0   0   0   
      0   0   0   0   0   
      0   0   0   0   0   
      0   0   0   0   0   
      0   0   0   0   0   
      0   0   0   0   0   
      0   0   0   0   0   
      0   0   0   0   0   
      0   0   0   0   0   
      0   0   0   0   0   
      0   0   0   0   0   
      0   0   0   0   0   
      0   0   0   0   0   
      0   0   0   0   0   
      0   0   0   0   0   
      0   0   0   0   0   
      0   0   0   0   0   
      0   0   0   0   0   
      0   0   0   0   0   
      0   0   0   0   0   
      0   0   0   0   0   
      0   0   0   0   0   
      0   0   0   0   0   
      0   0   0   0   0   
      0   0   0   0   0   
      0   0   0   0   0   
      0   0   0   0   0   
      0   0   0   0   0   
      0   0   0   0   0   
      0   0   0   0   0   
      0   0   0   0   0   
      0   0   0   0   0   
      0   0   0   0   0   
      0   0   0   0   0   
      0   0   0   0   0   
      0   0   0   0   0   
      0   0   0   0   0   
      0   0   0   0   0   
      0   0   0   0   0   
      0   0   0   0   0   
      0   0   0   0   0   
      0   0   0   0   0   
      0   0   0   0   0   
      0   0   0   0   0   
      0   0   0   0   0   
      0   0   0   0   0   
      0   0   0   0   0   
      0   0   0   0   0   
      0   0   0   0   0   
      0   0   0   0   0   
      0   0   0   0   0   
      0   0   0   0   0   
      0   0   0   0   0   
      0   0   0   0   0   
      0   0   0   0   0   
      0   0   0   0   0   
      0   0   0   0   0   
      0   0   0   0   0   
      0   0   0   0   0   
      0   0   0   0   0   
      0   0   0   0   0   
      0   0   0   0   0   
      0   0   0   0   0   
      0   0   0   0   0   
      0   0   0   0   0   
      0   0   0   0   0   
      0   0   0   0   0   
      0   0   0   0   0   
      0   0   0   0   0   
      0   0   0   0   0   
      0   0   0   0   0   
      0   0   0   0   0   
      0   0   0   0   0   
      0   0   0   0   0   
      0   0   0   0   0   
      0   0   0   0   0   
      0   0   0   0   0   
      0   0   0   0   0   
      0   0   0   0   0   
      0   0   0   0   0   
      0   0   0   0   0   
      0   0   0   0   0   
      0   0   0   0   0   
      0   0   0   0   0   
      0   0   0   0   0   
      0   0   0   0   0   
      0   0   0   0   0   
      0   0   0   0   0   
      0   0   0   0   0   
      0   0   0   0   0   
      0   0   0   0   0   
      0   0   0   0   0   
      0   0   0   0   0   
      0   0   0   0   0   
      0   0   0   0   0   
      0   0   0   0   0   
      0   0   0   0   0   
      0   0   0   0   0   
      0   0   0   0   0   
      0   0   0   0   0   
      0   0   0   0   0   
      0   0   0   0   0   
      0   0   0   0   0   
      0   0   0   0   0   
      0   0   0   0   0   
      0   0   0   0   0   
      0   0   0   0   0   
      0   0   0   0   0   
      0   0   0   0   0   
      0   0   0   0   0   
      0   0   0   0   0   
      0   0   0   0   0   
      0   0   0   0   0   
      0   0   0   0   0   
      0   0   0   0   0   
      0   0   0   0   0   
      0   0   0   0   0   
      0   0   0   0   0   
      0   0   0   0   0   
      0   0   0   0   0   
      0   0   0   0   0   
      0   0   0   0   0   
      0   0   0   0   0   
      0   0   0   0   0   
      0   0   0   0   0   
      0   0   0   0   0   
      0   0   0   0   0   
      0   0   0   0   0   
      0   0   0   0   0   
      0   0   0   0   0   
      0   0   0   0   0   
      0   0   0   0   0   
      0   0   0   0   0   
      0   0   0   0   0   
      0   0   0   0   0   
      0   0   0   0   0   
      0   0   0   0   0   
      0   0   0   0   0   
      0   0   0   0   0   
      0   0   0   0   0   
      0   0   0   0   0   
      0   0   0   0   0   
      0   0   0   0   0   
      0   0   0   0   0   
      0   0   0   0   0   
      0   0   0   0   0   
      0   0   0   0   0   
      0   0   0   0   0   
      0   0   0   0   0   
      0   0   0   0   0   
      0   0   0   0   0   
      0   0   0   0   0   
      0   0   0   0   0   
      0   0   0   0   0   
      0   0   0   0   0   
      0   0   0   0   0   
      0   0   0   0   0   
      0   0   0   0   0   
      0   0   0   0   0   
      0   0   0   0   0   
      0   0   0   0   0   
      0   0   0   0   0   
      0   0   0   0   0   
      0   0   0   0   0   
      0   0   0   0   0   
      0   0   0   0   0   
      0   0   0   0   0   
      0   0   0   0   0   
      0   0   0   0   0   
      0   0   0   0   0   
      0   0   0   0   0   
      0   0   0   0   0   
      0   0   0   0   0   
      0   0   0   0   0   
      0   0   0   0   0   
      0   0   0   0   0   
      0   0   0   0   0   
      0   0   0   0   0   
      0   0   0   0   0   
      0   0   0   0   0   
      0   0   0   0   0   
      0   0   0   0   0   
      0   0   0   0   0   
      0   0   0   0   0   
      0   0   0   0   0   
      0   0   0   0   0   
      0   0   0   0   0   
      0   0   0   0   0   
      0   0   0   0   0   
      0   0   0   0   0   
      0   0   0   0   0   
      0   0   0   0   0   
      0   0   0   0   0   
      0   0   0   0   0   
      0   0   0   0   0   
      0   0   0   0   0   
      0   0   0   0   0   
      0   0   0   0   0   
      0   0   0   0   0   
      0   0   0   0   0   
      0   0   0   0   0   
      0   0   0   0   0   
      0.0847730307171   0.084775056832   0.0847811261381   0.0847912115043   0.0848052676635   
      0.0848232311426   0.0848450201732   0.0848705345906   0.0848996557301   0.0849322463342   
      0.0849681504848   0.0850071935763   0.0850491823479   0.085093904995   0.0851411313805   
      0.0851906133683   0.0852420853005   0.0852952646408   0.0853498528053   0.0854055362007   
      0.0854619874869   0.0855188670773   0.0855758248891   0.085632502346   0.0856885346341   
      0.085743553204   0.0857971885033   0.0858490729199   0.0858988439048   0.0859461472391   
      0.0859906404004   0.0860319959789   0.0860699050871   0.0861040807031   0.0861342608869   
      0.0861602118038   0.0861817304951   0.0861986473375   0.0862108281349   0.0862181757986   
      0.0862206315759   0.0862181757986   0.0862108281349   0.0861986473375   0.0861817304951   
      0.0861602118038   0.0861342608869   0.0861040807031   0.0860699050871   0.0860319959789   
      0.0859906404004   0.0859461472391   0.0858988439048   0.0858490729199   0.0857971885033   
      0.085743553204   0.0856885346341   0.085632502346   0.0855758248891   0.0855188670773   
      0.0854619874869   0.0854055362007   0.0853498528053   0.0852952646408   0.0852420853005   
      0.0851906133683   0.0851411313805   0.085093904995   0.0850491823479   0.0850071935763   
      0.0849681504848   0.0849322463342   0.0848996557301   0.0848705345906   0.0848450201732   
      0.0848232311426   0.0848052676635   0.0847912115043   0.0847811261381   0.084775056832   
      0.0938255851585   0.0938284961384   0.0938372161799   0.0938517065642   0.0938719026815   
      0.0938977139179   0.0939290235105   0.09396568838   0.0940075389572   0.0940543790214   
      0.0941059855717   0.0941621087554   0.0942224718811   0.0942867715444   0.0943546778988   
      0.0944258351022   0.0944998619738   0.0945763528925   0.0946548789689   0.0947349895193   
      0.0948162138681   0.0948980634984   0.0949800345658   0.0950616107832   0.0951422666747   
      0.0952214711889   0.0952986916504   0.0953733980169   0.0954450674012   0.095513188802   
      0.0955772679811   0.095636832413   0.0956914362267   0.0957406650512   0.0957841406767   
      0.095821525437   0.0958525262257   0.0958768980596   0.0958944471113   0.0959050331441   
      0.0959085712918   0.0959050331441   0.0958944471113   0.0958768980596   0.0958525262257   
      0.095821525437   0.0957841406767   0.0957406650512   0.0956914362267   0.095636832413   
      0.0955772679811   0.095513188802   0.0954450674012   0.0953733980169   0.0952986916504   
      0.0952214711889   0.0951422666747   0.0950616107832   0.0949800345658   0.0948980634984   
      0.0948162138681   0.0947349895193   0.0946548789689   0.0945763528925   0.0944998619738   
      0.0944258351022   0.0943546778988   0.0942867715444   0.0942224718811   0.0941621087554   
      0.0941059855717   0.0940543790214   0.0940075389572   0.09396568838   0.0939290235105   
      0.0938977139179   0.0938719026815   0.0938517065642   0.0938372161799   0.0938284961384   
      0.109533653861   0.109538415403   0.109552679027   0.109576381687   0.109609418167   
      0.109651640878   0.109702859596   0.109762841161   0.109831309162   0.109907943627   
      0.109992380786   0.1100842129   0.110182988255   0.110288211322   0.110399343167   
      0.110515802152   0.110636964988   0.11076216818   0.11089070994   0.111021852593   
      0.111154825529   0.111288828738   0.111423036937   0.111556604319   0.111688669908   
      0.1118183635   0.11194481217   0.112067147268   0.112184511858   0.112296068486   
      0.112401007193   0.112498553631   0.112587977173   0.112668598849   0.112739798982   
      0.112801024359   0.112851794801   0.11289170899   0.112920449425   0.112937786398   
      0.1129435809   0.112937786398   0.112920449425   0.11289170899   0.112851794801   
      0.112801024359   0.112739798982   0.112668598849   0.112587977173   0.112498553631   
      0.112401007193   0.112296068486   0.112184511858   0.112067147268   0.11194481217   
      0.1118183635   0.111688669908   0.111556604319   0.111423036937   0.111288828738   
      0.111154825529   0.111021852593   0.11089070994   0.11076216818   0.110636964988   
      0.110515802152   0.110399343167   0.110288211322   0.110182988255   0.1100842129   
      0.109992380786   0.109907943627   0.109831309162   0.109762841161   0.109702859596   
      0.109651640878   0.109609418167   0.109576381687   0.109552679027   0.109538415403   
      0.122842373514   0.122849124702   0.122869348398   0.122902954929   0.122949794643   
      0.123009657621   0.123082273305   0.123167310076   0.123264374803   0.123373012432   
      0.123492705635   0.123622874619   0.123762877115   0.123912008662   0.124069503222   
      0.124234534231   0.124406216147   0.124583606577   0.124765709058   0.124951476552   
      0.125139815714   0.125329591977   0.12551963549   0.125708747906   0.12589571003   
      0.126079290277   0.126258253908   0.12643137294   0.126597436648   0.126755262518   
      0.126903707502   0.127041679418   0.127168148286   0.127282157428   0.127382834109   
      0.12746939953   0.127541177953   0.1275976048   0.127638233519   0.1276627411   
      0.127670932101   0.1276627411   0.127638233519   0.1275976048   0.127541177953   
      0.12746939953   0.127382834109   0.127282157428   0.127168148286   0.127041679418   
      0.126903707502   0.126755262518   0.126597436648   0.12643137294   0.126258253908   
      0.126079290277   0.12589571003   0.125708747906   0.12551963549   0.125329591977   
      0.125139815714   0.124951476552   0.124765709058   0.124583606577   0.124406216147   
      0.124234534231   0.124069503222   0.123912008662   0.123762877115   0.123622874619   
      0.123492705635   0.123373012432   0.123264374803   0.123167310076   0.123082273305   
      0.123009657621   0.122949794643   0.122902954929   0.122869348398   0.122849124702   
      0.135399727483   0.135408454085   0.135434594953   0.135478033201   0.135538573772   
      0.135615943093   0.135709788626   0.13581967836   0.135945100286   0.136085461924   
      0.136240089961   0.136408230085   0.136589047095   0.13678162538   0.136984969862   
      0.137198007505   0.13741958948   0.137648494092   0.137883430547   0.138123043648   
      0.138365919482   0.13861059215   0.138855551573   0.139099252376   0.13934012384   
      0.139576580867   0.139807035885   0.140029911588   0.140243654374   0.140446748306   
      0.140637729422   0.140815200159   0.140977843676   0.141124437826   0.141253868512   
      0.141365142208   0.141457397367   0.141529914521   0.141582124839   0.141613616987   
      0.141624142132   0.141613616987   0.141582124839   0.141529914521   0.141457397367   
      0.141365142208   0.141253868512   0.141124437826   0.140977843676   0.140815200159   
      0.140637729422   0.140446748306   0.140243654374   0.140029911588   0.139807035885   
      0.139576580867   0.13934012384   0.139099252376   0.138855551573   0.13861059215   
      0.138365919482   0.138123043648   0.137883430547   0.137648494092   0.13741958948   
      0.137198007505   0.136984969862   0.13678162538   0.136589047095   0.136408230085   
      0.136240089961   0.136085461924   0.135945100286   0.13581967836   0.135709788626   
      0.135615943093   0.135538573772   0.135478033201   0.135434594953   0.135408454085   
      0.146263026312   0.146273445697   0.146304656815   0.146356518469   0.146428795068   
      0.146521156258   0.146633176445   0.146764334269   0.146914012086   0.147081495519   
      0.147265973177   0.147466536618   0.147682180674   0.147911804231   0.14815421159   
      0.14840811451   0.148672135056   0.148944809362   0.149224592392   0.149509863811   
      0.149798935016   0.150090057396   0.150381431824   0.150671219408   0.150957553442   
      0.151238552512   0.151512334647   0.151777032385   0.152030808587   0.152271872807   
      0.152498497982   0.152709037208   0.152901940325   0.153075770037   0.153229217297   
      0.153361115652   0.153470454319   0.153556389703   0.153618255162   0.153655568808   
      0.153668039201   0.153655568808   0.153618255162   0.153556389703   0.153470454319   
      0.153361115652   0.153229217297   0.153075770037   0.152901940325   0.152709037208   
      0.152498497982   0.152271872807   0.152030808587   0.151777032385   0.151512334647   
      0.151238552512   0.150957553442   0.150671219408   0.150381431824   0.150090057396   
      0.149798935016   0.149509863811   0.149224592392   0.148944809362   0.148672135056   
      0.14840811451   0.14815421159   0.147911804231   0.147682180674   0.147466536618   
      0.147265973177   0.147081495519   0.146914012086   0.146764334269   0.146633176445   
      0.146521156258   0.146428795068   0.146356518469   0.146304656815   0.146273445697   
      0.154786867735   0.154798570057   0.154833623554   0.154891867734   0.154973034852   
      0.155076749547   0.155202528387   0.155349779382   0.155517801518   0.155705784412   
      0.155912808166   0.156137843527   0.156379752478   0.15663728936   0.156909102667   
      0.157193737626   0.157489639694   0.157795159078   0.15810855639   0.158428009519   
      0.158751621802   0.159077431525   0.159403422781   0.159727537675   0.160047689815   
      0.16036177903   0.160667707169   0.160963394849   0.161246798951   0.161515930649   
      0.161768873724   0.162003802887   0.162219001844   0.16241288079   0.162583993039   
      0.162731050516   0.162852937815   0.162948724571   0.163017675921   0.163059260861   
      0.16307315832   0.163059260861   0.163017675921   0.162948724571   0.162852937815   
      0.162731050516   0.162583993039   0.16241288079   0.162219001844   0.162003802887   
      0.161768873724   0.161515930649   0.161246798951   0.160963394849   0.160667707169   
      0.16036177903   0.160047689815   0.159727537675   0.159403422781   0.159077431525   
      0.158751621802   0.158428009519   0.15810855639   0.157795159078   0.157489639694   
      0.157193737626   0.156909102667   0.15663728936   0.156379752478   0.156137843527   
      0.155912808166   0.155705784412   0.155517801518   0.155349779382   0.155202528387   
      0.155076749547   0.154973034852   0.154891867734   0.154833623554   0.154798570057   
      0.160574690385   0.160587230138   0.16062479154   0.160687200946   0.160774168702   
      0.160885288806   0.161020038492   0.161177777796   0.161357749176   0.161559077266   
      0.161780768883   0.162021713375   0.162280683448   0.16255633659   0.162847217225   
      0.163151759726   0.163468292413   0.163795042659   0.164130143202   0.16447163975   
      0.164817499961   0.165165623815   0.165513855403   0.165859996114   0.166201819142   
      0.166537085235   0.166863559549   0.167179029433   0.16748132294   0.167768327847   
      0.168038010893   0.168288436994   0.168517788106   0.168724381455   0.168906686827   
      0.169063342631   0.169193170444   0.169295187799   0.169368618977   0.169412903608   
      0.169427702933   0.169412903608   0.169368618977   0.169295187799   0.169193170444   
      0.169063342631   0.168906686827   0.168724381455   0.168517788106   0.168288436994   
      0.168038010893   0.167768327847   0.16748132294   0.167179029433   0.166863559549   
      0.166537085235   0.166201819142   0.165859996114   0.165513855403   0.165165623815   
      0.164817499961   0.16447163975   0.164130143202   0.163795042659   0.163468292413   
      0.163151759726   0.162847217225   0.16255633659   0.162280683448   0.162021713375   
      0.161780768883   0.161559077266   0.161357749176   0.161177777796   0.161020038492   
      0.160885288806   0.160774168702   0.160687200946   0.16062479154   0.160587230138   
      0.163482920557   0.163495868722   0.163534653154   0.163599093588   0.163688889351   
      0.163803619038   0.163942740128   0.164105588582   0.16429137852   0.164499202051   
      0.16472802936   0.164976709178   0.16524396975   0.165528420428   0.165828554032   
      0.1661427501   0.166469279166   0.166806308178   0.167151907155   0.167504057186   
      0.167860659818   0.168219547881   0.168578497746   0.168935242991   0.169287489415   
      0.169632931286   0.169969268691   0.170294225806   0.17060556988   0.170901130691   
      0.171178820207   0.171436652169   0.171672761298   0.171885421829   0.172073065061   
      0.172234295637   0.172367906278   0.172472890721   0.17254845462   0.172594024245   
      0.172609252796   0.172594024245   0.17254845462   0.172472890721   0.172367906278   
      0.172234295637   0.172073065061   0.171885421829   0.171672761298   0.171436652169   
      0.171178820207   0.170901130691   0.17060556988   0.170294225806   0.169969268691   
      0.169632931286   0.169287489415   0.168935242991   0.168578497746   0.168219547881   
      0.167860659818   0.167504057186   0.167151907155   0.166806308178   0.166469279166   
      0.1661427501   0.165828554032   0.165528420428   0.16524396975   0.164976709178   
      0.16472802936   0.164499202051   0.16429137852   0.164105588582   0.163942740128   
      0.163803619038   0.163688889351   0.163599093588   0.163534653154   0.163495868722   
      0.163482920557   0.163495868722   0.163534653154   0.163599093588   0.163688889351   
      0.163803619038   0.163942740128   0.164105588582   0.16429137852   0.164499202051   
      0.16472802936   0.164976709178   0.16524396975   0.165528420428   0.165828554032   
      0.1661427501   0.166469279166   0.166806308178   0.167151907155   0.167504057186   
      0.167860659818   0.168219547881   0.168578497746   0.168935242991   0.169287489415   
      0.169632931286   0.169969268691   0.170294225806   0.17060556988   0.170901130691   
      0.171178820207   0.171436652169   0.171672761298   0.171885421829   0.172073065061   
      0.172234295637   0.172367906278   0.172472890721   0.17254845462   0.172594024245   
      0.172609252796   0.172594024245   0.17254845462   0.172472890721   0.172367906278   
      0.172234295637   0.172073065061   0.171885421829   0.171672761298   0.171436652169   
      0.171178820207   0.170901130691   0.17060556988   0.170294225806   0.169969268691   
      0.169632931286   0.169287489415   0.168935242991   0.168578497746   0.168219547881   
      0.167860659818   0.167504057186   0.167151907155   0.166806308178   0.166469279166   
      0.1661427501   0.165828554032   0.165528420428   0.16524396975   0.164976709178   
      0.16472802936   0.164499202051   0.16429137852   0.164105588582   0.163942740128   
      0.163803619038   0.163688889351   0.163599093588   0.163534653154   0.163495868722   
      0.160574690385   0.160587230138   0.16062479154   0.160687200946   0.160774168702   
      0.160885288806   0.161020038492   0.161177777796   0.161357749176   0.161559077266   
      0.161780768883   0.162021713375   0.162280683448   0.16255633659   0.162847217225   
      0.163151759726   0.163468292413   0.163795042659   0.164130143202   0.16447163975   
      0.164817499961   0.165165623815   0.165513855403   0.165859996114   0.166201819142   
      0.166537085235   0.166863559549   0.167179029433   0.16748132294   0.167768327847   
      0.168038010893   0.168288436994   0.168517788106   0.168724381455   0.168906686827   
      0.169063342631   0.169193170444   0.169295187799   0.169368618977   0.169412903608   
      0.169427702933   0.169412903608   0.169368618977   0.169295187799   0.169193170444   
      0.169063342631   0.168906686827   0.168724381455   0.168517788106   0.168288436994   
      0.168038010893   0.167768327847   0.16748132294   0.167179029433   0.166863559549   
      0.166537085235   0.166201819142   0.165859996114   0.165513855403   0.165165623815   
      0.164817499961   0.16447163975   0.164130143202   0.163795042659   0.163468292413   
      0.163151759726   0.162847217225   0.16255633659   0.162280683448   0.162021713375   
      0.161780768883   0.161559077266   0.161357749176   0.161177777796   0.161020038492   
      0.160885288806   0.160774168702   0.160687200946   0.16062479154   0.160587230138   
      0.154786867735   0.154798570057   0.154833623554   0.154891867734   0.154973034852   
      0.155076749547   0.155202528387   0.155349779382   0.155517801518   0.155705784412   
      0.155912808166   0.156137843527   0.156379752478   0.15663728936   0.156909102667   
      0.157193737626   0.157489639694   0.157795159078   0.15810855639   0.158428009519   
      0.158751621802   0.159077431525   0.159403422781   0.159727537675   0.160047689815   
      0.16036177903   0.160667707169   0.160963394849   0.161246798951   0.161515930649   
      0.161768873724   0.162003802887   0.162219001844   0.16241288079   0.162583993039   
      0.162731050516   0.162852937815   0.162948724571   0.163017675921   0.163059260861   
      0.16307315832   0.163059260861   0.163017675921   0.162948724571   0.162852937815   
      0.162731050516   0.162583993039   0.16241288079   0.162219001844   0.162003802887   
      0.161768873724   0.161515930649   0.161246798951   0.160963394849   0.160667707169   
      0.16036177903   0.160047689815   0.159727537675   0.159403422781   0.159077431525   
      0.158751621802   0.158428009519   0.15810855639   0.157795159078   0.157489639694   
      0.157193737626   0.156909102667   0.15663728936   0.156379752478   0.156137843527   
      0.155912808166   0.155705784412   0.155517801518   0.155349779382   0.155202528387   
      0.155076749547   0.154973034852   0.154891867734   0.154833623554   0.154798570057   
      0.146263026312   0.146273445697   0.146304656815   0.146356518469   0.146428795068   
      0.146521156258   0.146633176445   0.146764334269   0.146914012086   0.147081495519   
      0.147265973177   0.147466536618   0.147682180674   0.147911804231   0.14815421159   
      0.14840811451   0.148672135056   0.148944809362   0.149224592392   0.149509863811   
      0.149798935016   0.150090057396   0.150381431824   0.150671219408   0.150957553442   
      0.151238552512   0.151512334647   0.151777032385   0.152030808587   0.152271872807   
      0.152498497982   0.152709037208   0.152901940325   0.153075770037   0.153229217297   
      0.153361115652   0.153470454319   0.153556389703   0.153618255162   0.153655568808   
      0.153668039201   0.153655568808   0.153618255162   0.153556389703   0.153470454319   
      0.153361115652   0.153229217297   0.153075770037   0.152901940325   0.152709037208   
      0.152498497982   0.152271872807   0.152030808587   0.151777032385   0.151512334647   
      0.151238552512   0.150957553442   0.150671219408   0.150381431824   0.150090057396   
      0.149798935016   0.149509863811   0.149224592392   0.148944809362   0.148672135056   
      0.14840811451   0.14815421159   0.147911804231   0.147682180674   0.147466536618   
      0.147265973177   0.147081495519   0.146914012086   0.146764334269   0.146633176445   
      0.146521156258   0.146428795068   0.146356518469   0.146304656815   0.146273445697   
      0.135399727483   0.135408454085   0.135434594953   0.135478033201   0.135538573772   
      0.135615943093   0.135709788626   0.13581967836   0.135945100286   0.136085461924   
      0.136240089961   0.136408230085   0.136589047095   0.13678162538   0.136984969862   
      0.137198007505   0.13741958948   0.137648494092   0.137883430547   0.138123043648   
      0.138365919482   0.13861059215   0.138855551573   0.139099252376   0.13934012384   
      0.139576580867   0.139807035885   0.140029911588   0.140243654374   0.140446748306   
      0.140637729422   0.140815200159   0.140977843676   0.141124437826   0.141253868512   
      0.141365142208   0.141457397367   0.141529914521   0.141582124839   0.141613616987   
      0.141624142132   0.141613616987   0.141582124839   0.141529914521   0.141457397367   
      0.141365142208   0.141253868512   0.141124437826   0.140977843676   0.140815200159   
      0.140637729422   0.140446748306   0.140243654374   0.140029911588   0.139807035885   
      0.139576580867   0.13934012384   0.139099252376   0.138855551573   0.13861059215   
      0.138365919482   0.138123043648   0.137883430547   0.137648494092   0.13741958948   
      0.137198007505   0.136984969862   0.13678162538   0.136589047095   0.136408230085   
      0.136240089961   0.136085461924   0.135945100286   0.13581967836   0.135709788626   