<?xml version="1.0"?>
<VTKFile type="ImageData" version="0.1" byte_order="LittleEndian">
  <ImageData WholeExtent="0 79 0 19 0 19" Origin="0 0 0" Spacing="1 1 1">
  <Piece Extent="0 79 0 19 0 19">
    <PointData Scalars="density">
       <DataArray type="Float32" Name="reddensity" NumberOfComponents="1" format="ascii">
      0   0   0   0   0   
      0   0   0   0   0   
      0   0   0   0   0   
      0   0   0   0   0   
      0   0   0   0   0   
      0   0   0   0   0   
      0   0   0   0   0   
      0   0   0   0   0   
      0   0   0   0   0   
      0   0   0   0   0   
      0   0   0   0   0   
      0   0   0   0   0   
      0   0   0   0   0   
      0   0   0   0   0   
      0   0   0   0   0   
      0   0   0   0   0   
      0   0   0   0   0   
      0   0   0   0   0   
      0   0   0   0   0   
      0   0   0   0   0   
      0   0   0   0   0   
      0   0   0   0   0   
      0   0   0   0   0   
      0   0   0   0   0   
      0   0   0   0   0   
      0   0   0   0   0   
      0   0   0   0   0   
      0   0   0   0   0   
      0   0   0   0   0   
      0   0   0   0   0   
      0   0   0   0   0   
      0   0   0   0   0   
      0   0   0   0   0   
      0   0   0   0   0   
      0   0   0   0   0   
      0   0   0   0   0   
      0   0   0   0   0   
      0   0   0   0   0   
      0   0   0   0   0   
      0   0   0   0   0   
      0   0   0   0   0   
      0   0   0   0   0   
      0   0   0   0   0   
      0   0   0   0   0   
      0   0   0   0   0   
      0   0   0   0   0   
      0   0   0   0   0   
      0   0   0   0   0   
      0   0   0   0   0   
      0   0   0   0   0   
      0   0   0   0   0   
      0   0   0   0   0   
      0   0   0   0   0   
      0   0   0   0   0   
      0   0   0   0   0   
      0   0   0   0   0   
      0   0   0   0   0   
      0   0   0   0   0   
      0   0   0   0   0   
      0   0   0   0   0   
      0   0   0   0   0   
      0   0   0   0   0   
      0   0   0   0   0   
      0   0   0   0   0   
      0   0   0   0   0   
      0   0   0   0   0   
      0   0   0   0   0   
      0   0   0   0   0   
      0   0   0   0   0   
      0   0   0   0   0   
      0   0   0   0   0   
      0   0   0   0   0   
      0   0   0   0   0   
      0   0   0   0   0   
      0   0   0   0   0   
      0   0   0   0   0   
      0   0   0   0   0   
      0   0   0   0   0   
      0   0   0   0   0   
      0   0   0   0   0   
      0   0   0   0   0   
      0   0   0   0   0   
      0   0   0   0   0   
      0   0   0   0   0   
      0   0   0   0   0   
      0   0   0   0   0   
      0   0   0   0   0   
      0   0   0   0   0   
      0   0   0   0   0   
      0   0   0   0   0   
      0   0   0   0   0   
      0   0   0   0   0   
      0   0   0   0   0   
      0   0   0   0   0   
      0   0   0   0   0   
      0   0   0   0   0   
      0   0   0   0   0   
      0   0   0   0   0   
      0   0   0   0   0   
      0   0   0   0   0   
      0   0   0   0   0   
      0   0   0   0   0   
      0   0   0   0   0   
      0   0   0   0   0   
      0   0   0   0   0   
      0   0   0   0   0   
      0   0   0   0   0   
      0   0   0   0   0   
      0   0   0   0   0   
      0   0   0   0   0   
      0   0   0   0   0   
      0   0   0   0   0   
      0   0   0   0   0   
      0   0   0   0   0   
      0   0   0   0   0   
      0   0   0   0   0   
      0   0   0   0   0   
      0   0   0   0   0   
      0   0   0   0   0   
      0   0   0   0   0   
      0   0   0   0   0   
      0   0   0   0   0   
      0   0   0   0   0   
      0   0   0   0   0   
      0   0   0   0   0   
      0   0   0   0   0   
      0   0   0   0   0   
      0   0   0   0   0   
      0   0   0   0   0   
      0   0   0   0   0   
      0   0   0   0   0   
      0   0   0   0   0   
      0   0   0   0   0   
      0   0   0   0   0   
      0   0   0   0   0   
      0   0   0   0   0   
      0   0   0   0   0   
      0   0   0   0   0   
      0   0   0   0   0   
      0   0   0   0   0   
      0   0   0   0   0   
      0   0   0   0   0   
      0   0   0   0   0   
      0   0   0   0   0   
      0   0   0   0   0   
      0   0   0   0   0   
      0   0   0   0   0   
      0   0   0   0   0   
      0   0   0   0   0   
      0   0   0   0   0   
      0   0   0   0   0   
      0   0   0   0   0   
      0   0   0   0   0   
      0   0   0   0   0   
      0   0   0   0   0   
      0   0   0   0   0   
      0   0   0   0   0   
      0   0   0   0   0   
      0   0   0   0   0   
      0   0   0   0   0   
      0   0   0   0   0   
      0   0   0   0   0   
      0   0   0   0   0   
      0   0   0   0   0   
      0   0   0   0   0   
      0   0   0   0   0   
      0   0   0   0   0   
      0   0   0   0   0   
      0   0   0   0   0   
      0   0   0   0   0   
      0   0   0   0   0   
      0   0   0   0   0   
      0   0   0   0   0   
      0   0   0   0   0   
      0   0   0   0   0   
      0   0   0   0   0   
      0   0   0   0   0   
      0   0   0   0   0   
      0   0   0   0   0   
      0   0   0   0   0   
      0   0   0   0   0   
      0   0   0   0   0   
      0   0   0   0   0   
      0   0   0   0   0   
      0   0   0   0   0   
      0   0   0   0   0   
      0   0   0   0   0   
      0   0   0   0   0   
      0   0   0   0   0   
      0   0   0   0   0   
      0   0   0   0   0   
      0   0   0   0   0   
      0   0   0   0   0   
      0   0   0   0   0   
      0   0   0   0   0   
      0   0   0   0   0   
      0   0   0   0   0   
      0   0   0   0   0   
      0   0   0   0   0   
      0   0   0   0   0   
      0   0   0   0   0   
      0   0   0   0   0   
      0   0   0   0   0   
      0   0   0   0   0   
      0   0   0   0   0   
      0   0   0   0   0   
      0   0   0   0   0   
      0   0   0   0   0   
      0   0   0   0   0   
      0   0   0   0   0   
      0   0   0   0   0   
      0   0   0   0   0   
      0   0   0   0   0   
      0   0   0   0   0   
      0   0   0   0   0   
      0   0   0   0   0   
      0   0   0   0   0   
      0   0   0   0   0   
      0   0   0   0   0   
      0   0   0   0   0   
      0   0   0   0   0   
      0   0   0   0   0   
      0   0   0   0   0   
      0   0   0   0   0   
      0   0   0   0   0   
      0   0   0   0   0   
      0   0   0   0   0   
      0   0   0   0   0   
      0   0   0   0   0   
      0   0   0   0   0   
      0   0   0   0   0   
      0   0   0   0   0   
      0   0   0   0   0   
      0   0   0   0   0   
      0   0   0   0   0   
      0   0   0   0   0   
      0   0   0   0   0   
      0   0   0   0   0   
      0   0   0   0   0   
      0   0   0   0   0   
      0   0   0   0   0   
      0   0   0   0   0   
      0   0   0   0   0   
      0   0   0   0   0   
      0   0   0   0   0   
      0   0   0   0   0   
      0   0   0   0   0   
      0   0   0   0   0   
      0   0   0   0   0   
      0   0   0   0   0   
      0   0   0   0   0   
      0   0   0   0   0   
      0   0   0   0   0   
      0   0   0   0   0   
      0   0   0   0   0   
      0   0   0   0   0   
      0   0   0   0   0   
      0   0   0   0   0   
      0   0   0   0   0   
      0   0   0   0   0   
      0   0   0   0   0   
      0   0   0   0   0   
      0   0   0   0   0   
      0   0   0   0   0   
      0   0   0   0   0   
      0   0   0   0   0   
      0   0   0   0   0   
      0   0   0   0   0   
      0   0   0   0   0   
      0   0   0   0   0   
      0   0   0   0   0   
      0   0   0   0   0   
      0   0   0   0   0   
      0   0   0   0   0   
      0   0   0   0   0   
      0   0   0   0   0   
      0   0   0   0   0   
      0   0   0   0   0   
      0   0   0   0   0   
      0   0   0   0   0   
      0   0   0   0   0   
      0   0   0   0   0   
      0   0   0   0   0   
      0   0   0   0   0   
      0   0   0   0   0   
      0   0   0   0   0   
      0   0   0   0   0   
      0   0   0   0   0   
      0   0   0   0   0   
      0   0   0   0   0   
      0   0   0   0   0   
      0   0   0   0   0   
      0   0   0   0   0   
      0   0   0   0   0   
      0   0   0   0   0   
      0   0   0   0   0   
      0   0   0   0   0   
      0   0   0   0   0   
      0   0   0   0   0   
      0   0   0   0   0   
      0   0   0   0   0   
      0   0   0   0   0   
      0   0   0   0   0   
      0   0   0   0   0   
      0   0   0   0   0   
      0   0   0   0   0   
      0   0   0   0   0   
      0   0   0   0   0   
      0   0   0   0   0   
      0   0   0   0   0   
      0   0   0   0   0   
      0   0   0   0   0   
      0   0   0   0   0   
      0   0   0   0   0   
      0   0   0   0   0   
      0   0   0   0   0   
      0   0   0   0   0   
      0   0   0   0   0   
      0   0   0   0   0   
      0   0   0   0   0   
      0   0   0   0   0   
      0   0   0   0   0   
      0   0   0   0   0   
      0   0   0   0   0   
      0   0   0   0   0   
      0   0   0   0   0   
      0   0   0   0   0   
      0   0   0   0   0   
      0   0   0   0   0   
      0   0   0   0   0   
      0   0   0   0   0   
      0   0   0   0   0   
      0   0   0   0   0   
      0   0   0   0   0   
      0   0   0   0   0   
      0   0   0   0   0   
      0.0846632815822   0.0846656077002   0.0846725762925   0.0846841580439   0.0847003039948   
      0.0847209453952   0.0847459935097   0.0847753393829   0.0848088535786   0.0848463859069   
      0.0848877651582   0.0849327988646   0.0849812731124   0.0850329524309   0.0850875797868   
      0.0851448767129   0.0852045436031   0.0852662602041   0.0853296863361   0.0853944628714   
      0.085460212999   0.0855265437986   0.0855930481429   0.0856593069409   0.0857248917272   
      0.0857893675931   0.0858522964478   0.0859132405837   0.0859717665126   0.0860274490269   
      0.0860798754291   0.086128649864   0.0861733976787   0.0862137697302   0.0862494465534   
      0.0862801423041   0.0863056083878   0.0863256366939   0.0863400623567   0.086348765978   
      0.0863516752558   0.086348765978   0.0863400623567   0.0863256366939   0.0863056083878   
      0.0862801423041   0.0862494465534   0.0862137697302   0.0861733976787   0.086128649864   
      0.0860798754291   0.0860274490269   0.0859717665126   0.0859132405837   0.0858522964478   
      0.0857893675931   0.0857248917272   0.0856593069409   0.0855930481429   0.0855265437986   
      0.085460212999   0.0853944628714   0.0853296863361   0.0852662602041   0.0852045436031   
      0.0851448767129   0.0850875797868   0.0850329524309   0.0849812731124   0.0849327988646   
      0.0848877651582   0.0848463859069   0.0848088535786   0.0847753393829   0.0847459935097   
      0.0847209453952   0.0847003039948   0.0846841580439   0.0846725762925   0.0846656077002   
      0.0936675330114   0.0936708740304   0.0936808831869   0.0936975187326   0.0937207109307   
      0.0937503618292   0.0937863449579   0.0938285049623   0.0938766571952   0.0939305872858   
      0.0939900507161   0.094054772433   0.0941244465324   0.0941987360537   0.0942772729248   
      0.0943596581038   0.094445461961   0.0945342249498   0.0946254586101   0.0947186469504   
      0.0948132482467   0.0949086972951   0.0950044081436   0.0950997773231   0.0951941875837   
      0.0952870121317   0.0953776193464   0.0954653779435   0.0955496625322   0.0956298595007   
      0.0957053731475   0.0957756319619   0.0958400949463   0.0958982578603   0.0959496592653   
      0.0959938862391   0.0960305796376   0.096059438782   0.0960802254606   0.0960927671501   
      0.0960969593754   0.0960927671501   0.0960802254606   0.096059438782   0.0960305796376   
      0.0959938862391   0.0959496592653   0.0958982578603   0.0958400949463   0.0957756319619   
      0.0957053731475   0.0956298595007   0.0955496625322   0.0954653779435   0.0953776193464   
      0.0952870121317   0.0951941875837   0.0950997773231   0.0950044081436   0.0949086972951   
      0.0948132482467   0.0947186469504   0.0946254586101   0.0945342249498   0.094445461961   
      0.0943596581038   0.0942772729248   0.0941987360537   0.0941244465324   0.094054772433   
      0.0939900507161   0.0939305872858   0.0938766571952   0.0938285049623   0.0937863449579   
      0.0937503618292   0.0937207109307   0.0936975187326   0.0936808831869   0.0936708740304   
      0.109274490875   0.109279954688   0.10929632353   0.109323529539   0.109361459332   
      0.109409953621   0.109468806673   0.109537765678   0.109616530029   0.109704750568   
      0.109802028831   0.109907916363   0.110021914139   0.110143472175   0.110271989386   
      0.110406813778   0.110547243032   0.11069252558   0.110841862226   0.110994408407   
      0.111149277142   0.111305542737   0.111462245281   0.111618395974   0.111772983282   
      0.111924979925   0.112073350644   0.112217060703   0.112355085034   0.112486417914   
      0.112610083031   0.112725143798   0.112830713712   0.112925966589   0.113010146453   
      0.113082576882   0.11314266961   0.113189932176   0.11322397446   0.113244513938   
      0.113251379528   0.113244513938   0.11322397446   0.113189932176   0.11314266961   
      0.113082576882   0.113010146453   0.112925966589   0.112830713712   0.112725143798   
      0.112610083031   0.112486417914   0.112355085034   0.112217060703   0.112073350644   
      0.111924979925   0.111772983282   0.111618395974   0.111462245281   0.111305542737   
      0.111149277142   0.110994408407   0.110841862226   0.11069252558   0.110547243032   
      0.110406813778   0.110271989386   0.110143472175   0.110021914139   0.109907916363   
      0.109802028831   0.109704750568   0.109616530029   0.109537765678   0.109468806673   
      0.109409953621   0.109361459332   0.109323529539   0.10929632353   0.109279954688   
      0.12247417636   0.122481924045   0.122505134953   0.12254371253   0.12259749546   
      0.122666257099   0.122749704725   0.122847478618   0.122959151046   0.123084225193   
      0.123222134101   0.123372239708   0.123533832059   0.123706128786   0.12388827497   
      0.124079343461   0.124278335804   0.124484183845   0.124695752142   0.124911841287   
      0.125131192202   0.125352491519   0.125574378077   0.125795450574   0.126014276397   
      0.126229401585   0.126439361885   0.126642694807   0.126837952547   0.127023715624   
      0.127198607032   0.127361306684   0.127510565905   0.127645221691   0.127764210481   
      0.127866581128   0.127951506826   0.128018295696   0.128066399818   0.128095422487   
      0.128105123518   0.128095422487   0.128066399818   0.128018295696   0.127951506826   
      0.127866581128   0.127764210481   0.127645221691   0.127510565905   0.127361306684   
      0.127198607032   0.127023715624   0.126837952547   0.126642694807   0.126439361885   
      0.126229401585   0.126014276397   0.125795450574   0.125574378077   0.125352491519   
      0.125131192202   0.124911841287   0.124695752142   0.124484183845   0.124278335804   
      0.124079343461   0.12388827497   0.123706128786   0.123533832059   0.123372239708   
      0.123222134101   0.123084225193   0.122959151046   0.122847478618   0.122749704725   
      0.122666257099   0.12259749546   0.12254371253   0.122505134953   0.122481924045   
      0.13492300017   0.134933018009   0.134963029551   0.135012908728   0.135082444931   
      0.135171342303   0.13527921879   0.135405605003   0.135549942954   0.135711584743   
      0.135889791283   0.136083731156   0.13629247973   0.136515018641   0.136750235779   
      0.136996925917   0.137253792116   0.137519448041   0.137792421332   0.138071158142   
      0.138354028955   0.138639335771   0.138925320723   0.139210176154   0.139492056153   
      0.139769089522   0.140039394061   0.140301092082   0.140552326955   0.14079128049   
      0.141016190899   0.141225371059   0.141417226761   0.141590274618   0.141743159283   
      0.141874669648   0.141983753666   0.142069531513   0.142131306772   0.142168575409   
      0.142181032336   0.142168575409   0.142131306772   0.142069531513   0.141983753666   
      0.141874669648   0.141743159283   0.141590274618   0.141417226761   0.141225371059   
      0.141016190899   0.14079128049   0.140552326955   0.140301092082   0.140039394061   
      0.139769089522   0.139492056153   0.139210176154   0.138925320723   0.138639335771   
      0.138354028955   0.138071158142   0.137792421332   0.137519448041   0.137253792116   
      0.136996925917   0.136750235779   0.136515018641   0.13629247973   0.136083731156   
      0.135889791283   0.135711584743   0.135549942954   0.135405605003   0.13527921879   
      0.135171342303   0.135082444931   0.135012908728   0.134963029551   0.134933018009   
      0.145693035531   0.145705002083   0.145740850905   0.145800429324   0.145883482327   
      0.145989651761   0.146118475265   0.146269385001   0.146441706259   0.146634656032   
      0.146847341655   0.147078759647   0.147327794884   0.147593220247   0.147873696899   
      0.148167775361   0.148473897537   0.148790399849   0.149115517638   0.149447390958   
      0.149784071887   0.150123533445   0.150463680169   0.150802360384   0.151137380139   
      0.151466518744   0.1517875458   0.152098239565   0.152396406437   0.15267990131   
      0.152946648507   0.153194662959   0.153422071281   0.153627132355   0.15380825707   
      0.153964026803   0.1540932103   0.154194778613   0.154267917764   0.154312038903   
      0.154326785709   0.154312038903   0.154267917764   0.154194778613   0.1540932103   
      0.153964026803   0.15380825707   0.153627132355   0.153422071281   0.153194662959   
      0.152946648507   0.15267990131   0.152396406437   0.152098239565   0.1517875458   
      0.151466518744   0.151137380139   0.150802360384   0.150463680169   0.150123533445   
      0.149784071887   0.149447390958   0.149115517638   0.148790399849   0.148473897537   
      0.148167775361   0.147873696899   0.147593220247   0.147327794884   0.147078759647   
      0.146847341655   0.146634656032   0.146441706259   0.146269385001   0.146118475265   
      0.145989651761   0.145883482327   0.145800429324   0.145740850905   0.145705002083   
      0.154145997644   0.154159444081   0.154199725453   0.154266667762   0.154359980426   
      0.154479255438   0.154623966251   0.154793466473   0.154986988437   0.155203641775   
      0.155442412101   0.155702159952   0.155981620138   0.156279401656   0.15659398835   
      0.156923740497   0.157266897472   0.157621581693   0.157985803981   0.158357470483   
      0.158734391284   0.159114290774   0.159494819843   0.159873569896   0.160248088654   
      0.160615897655   0.160974511312   0.161321457343   0.161654298329   0.161970654118   
      0.16226822475   0.162544813542   0.162798349967   0.163026911905   0.163228746899   
      0.163402291994   0.163546191802   0.163659314439   0.163740765019   0.163789896441   
      0.163806317255   0.163789896441   0.163740765019   0.163659314439   0.163546191802   
      0.163402291994   0.163228746899   0.163026911905   0.162798349967   0.162544813542   
      0.16226822475   0.161970654118   0.161654298329   0.161321457343   0.160974511312   
      0.160615897655   0.160248088654   0.159873569896   0.159494819843   0.159114290774   
      0.158734391284   0.158357470483   0.157985803981   0.157621581693   0.157266897472   
      0.156923740497   0.15659398835   0.156279401656   0.155981620138   0.155702159952   
      0.155442412101   0.155203641775   0.154986988437   0.154793466473   0.154623966251   
      0.154479255438   0.154359980426   0.154266667762   0.154199725453   0.154159444081   
      0.159887439236   0.159901853581   0.159945033788   0.160016791192   0.16011681076   
      0.160244650246   0.160399739075   0.160581377046   0.160788732935   0.161020843119   
      0.161276610359   0.161554802876   0.161854053901   0.162172861866   0.162509591406   
      0.162862475389   0.163229618116   0.163608999904   0.16399848319   0.164395820301   
      0.16479866301   0.16520457395   0.16561103993   0.166015487141   0.166415298206   
      0.166807830953   0.167190438773   0.167560492324   0.167915402345   0.168252643267   
      0.168569777271   0.168864478433   0.169134556561   0.169377980316   0.169592899214   
      0.169777664122   0.169930845871   0.170051251632   0.17013793877   0.170190225894   
      0.170207700907   0.170190225894   0.17013793877   0.170051251632   0.169930845871   
      0.169777664122   0.169592899214   0.169377980316   0.169134556561   0.168864478433   
      0.168569777271   0.168252643267   0.167915402345   0.167560492324   0.167190438773   
      0.166807830953   0.166415298206   0.166015487141   0.16561103993   0.16520457395   
      0.16479866301   0.164395820301   0.16399848319   0.163608999904   0.163229618116   
      0.162862475389   0.162509591406   0.162172861866   0.161854053901   0.161554802876   
      0.161276610359   0.161020843119   0.160788732935   0.160581377046   0.160399739075   
      0.160244650246   0.16011681076   0.160016791192   0.159945033788   0.159901853581   
      0.162773009747   0.162787896838   0.162832492806   0.16290660156   0.163009895696   
      0.163141915649   0.163302068597   0.163489627177   0.16370372812   0.163943370928   
      0.16420741672   0.164494587409   0.16480346538   0.165132493845   0.165479978059   
      0.165844087594   0.166222859852   0.166614204992   0.167015912442   0.16742565912   
      0.167841019486   0.168259477501   0.168678440506   0.169095255039   0.169507224489   
      0.1699116285   0.170305743937   0.170686867198   0.171052337596   0.171399561515   
      0.17172603696   0.172029378149   0.17230733975   0.172557840333   0.172778984664   
      0.172969084436   0.173126677066   0.173250542216   0.173339715759   0.1733935009   
      0.173411476282   0.1733935009   0.173339715759   0.173250542216   0.173126677066   
      0.172969084436   0.172778984664   0.172557840333   0.17230733975   0.172029378149   
      0.17172603696   0.171399561515   0.171052337596   0.170686867198   0.170305743937   
      0.1699116285   0.169507224489   0.169095255039   0.168678440506   0.168259477501   
      0.167841019486   0.16742565912   0.167015912442   0.166614204992   0.166222859852   
      0.165844087594   0.165479978059   0.165132493845   0.16480346538   0.164494587409   
      0.16420741672   0.163943370928   0.16370372812   0.163489627177   0.163302068597   
      0.163141915649   0.163009895696   0.16290660156   0.162832492806   0.162787896838   
      0.162773009747   0.162787896838   0.162832492806   0.16290660156   0.163009895696   
      0.163141915649   0.163302068597   0.163489627177   0.16370372812   0.163943370928   
      0.16420741672   0.164494587409   0.16480346538   0.165132493845   0.165479978059   
      0.165844087594   0.166222859852   0.166614204992   0.167015912442   0.16742565912   
      0.167841019486   0.168259477501   0.168678440506   0.169095255039   0.169507224489   
      0.1699116285   0.170305743937   0.170686867198   0.171052337596   0.171399561515   
      0.17172603696   0.172029378149   0.17230733975   0.172557840333   0.172778984664   
      0.172969084436   0.173126677066   0.173250542216   0.173339715759   0.1733935009   
      0.173411476282   0.1733935009   0.173339715759   0.173250542216   0.173126677066   
      0.172969084436   0.172778984664   0.172557840333   0.17230733975   0.172029378149   
      0.17172603696   0.171399561515   0.171052337596   0.170686867198   0.170305743937   
      0.1699116285   0.169507224489   0.169095255039   0.168678440506   0.168259477501   
      0.167841019486   0.16742565912   0.167015912442   0.166614204992   0.166222859852   
      0.165844087594   0.165479978059   0.165132493845   0.16480346538   0.164494587409   
      0.16420741672   0.163943370928   0.16370372812   0.163489627177   0.163302068597   
      0.163141915649   0.163009895696   0.16290660156   0.162832492806   0.162787896838   
      0.159887439236   0.159901853581   0.159945033788   0.160016791192   0.16011681076   
      0.160244650246   0.160399739075   0.160581377046   0.160788732935   0.161020843119   
      0.161276610359   0.161554802876   0.161854053901   0.162172861866   0.162509591406   
      0.162862475389   0.163229618116   0.163608999904   0.16399848319   0.164395820301   
      0.16479866301   0.16520457395   0.16561103993   0.166015487141   0.166415298206   
      0.166807830953   0.167190438773   0.167560492324   0.167915402345   0.168252643267   
      0.168569777271   0.168864478433   0.169134556561   0.169377980316   0.169592899214   
      0.169777664122   0.169930845871   0.170051251632   0.17013793877   0.170190225894   
      0.170207700907   0.170190225894   0.17013793877   0.170051251632   0.169930845871   
      0.169777664122   0.169592899214   0.169377980316   0.169134556561   0.168864478433   
      0.168569777271   0.168252643267   0.167915402345   0.167560492324   0.167190438773   
      0.166807830953   0.166415298206   0.166015487141   0.16561103993   0.16520457395   
      0.16479866301   0.164395820301   0.16399848319   0.163608999904   0.163229618116   
      0.162862475389   0.162509591406   0.162172861866   0.161854053901   0.161554802876   
      0.161276610359   0.161020843119   0.160788732935   0.160581377046   0.160399739075   
      0.160244650246   0.16011681076   0.160016791192   0.159945033788   0.159901853581   
      0.154145997644   0.154159444081   0.154199725453   0.154266667762   0.154359980426   
      0.154479255438   0.154623966251   0.154793466473   0.154986988437   0.155203641775   
      0.155442412101   0.155702159952   0.155981620138   0.156279401656   0.15659398835   
      0.156923740497   0.157266897472   0.157621581693   0.157985803981   0.158357470483   
      0.158734391284   0.159114290774   0.159494819843   0.159873569896   0.160248088654   
      0.160615897655   0.160974511312   0.161321457343   0.161654298329   0.161970654118   
      0.16226822475   0.162544813542   0.162798349967   0.163026911905   0.163228746899   
      0.163402291994   0.163546191802   0.163659314439   0.163740765019   0.163789896441   
      0.163806317255   0.163789896441   0.163740765019   0.163659314439   0.163546191802   
      0.163402291994   0.163228746899   0.163026911905   0.162798349967   0.162544813542   
      0.16226822475   0.161970654118   0.161654298329   0.161321457343   0.160974511312   
      0.160615897655   0.160248088654   0.159873569896   0.159494819843   0.159114290774   
      0.158734391284   0.158357470483   0.157985803981   0.157621581693   0.157266897472   
      0.156923740497   0.15659398835   0.156279401656   0.155981620138   0.155702159952   
      0.155442412101   0.155203641775   0.154986988437   0.154793466473   0.154623966251   
      0.154479255438   0.154359980426   0.154266667762   0.154199725453   0.154159444081   
      0.145693035531   0.145705002083   0.145740850905   0.145800429324   0.145883482327   
      0.145989651761   0.146118475265   0.146269385001   0.146441706259   0.146634656032   
      0.146847341655   0.147078759647   0.147327794884   0.147593220247   0.147873696899   
      0.148167775361   0.148473897537   0.148790399849   0.149115517638   0.149447390958   
      0.149784071887   0.150123533445   0.150463680169   0.150802360384   0.151137380139   
      0.151466518744   0.1517875458   0.152098239565   0.152396406437   0.15267990131   
      0.152946648507   0.153194662959   0.153422071281   0.153627132355   0.15380825707   
      0.153964026803   0.1540932103   0.154194778613   0.154267917764   0.154312038903   
      0.154326785709   0.154312038903   0.154267917764   0.154194778613   0.1540932103   
      0.153964026803   0.15380825707   0.153627132355   0.153422071281   0.153194662959   
      0.152946648507   0.15267990131   0.152396406437   0.152098239565   0.1517875458   
      0.151466518744   0.151137380139   0.150802360384   0.150463680169   0.150123533445   
      0.149784071887   0.149447390958   0.149115517638   0.148790399849   0.148473897537   
      0.148167775361   0.147873696899   0.147593220247   0.147327794884   0.147078759647   
      0.146847341655   0.146634656032   0.146441706259   0.146269385001   0.146118475265   
      0.145989651761   0.145883482327   0.145800429324   0.145740850905   0.145705002083   
      0.13492300017   0.134933018009   0.134963029551   0.135012908728   0.135082444931   
      0.135171342303   0.13527921879   0.135405605003   0.135549942954   0.135711584743   
      0.135889791283   0.136083731156   0.13629247973   0.136515018641   0.136750235779   
      0.136996925917   0.137253792116   0.137519448041   0.137792421332   0.138071158142   
      0.138354028955   0.138639335771   0.138925320723   0.139210176154   0.139492056153   
      0.139769089522   0.140039394061   0.140301092082   0.140552326955   0.14079128049   
      0.141016190899   0.141225371059   0.141417226761   0.141590274618   0.141743159283   
      0.141874669648   0.141983753666   0.142069531513   0.142131306772   0.142168575409   
      0.142181032336   0.142168575409   0.142131306772   0.142069531513   0.141983753666   
      0.141874669648   0.141743159283   0.141590274618   0.141417226761   0.141225371059   
      0.141016190899   0.14079128049   0.140552326955   0.140301092082   0.140039394061   
      0.139769089522   0.139492056153   0.139210176154   0.138925320723   0.138639335771   
      0.138354028955   0.138071158142   0.137792421332   0.137519448041   0.137253792116   
      0.136996925917   0.136750235779   0.136515018641   0.13629247973   0.136083731156   
      0.135889791283   0.135711584743   0.135549942954   0.135405605003   0.13527921879   