<?xml version="1.0"?>
<VTKFile type="ImageData" version="0.1" byte_order="LittleEndian">
  <ImageData WholeExtent="0 79 0 19 0 19" Origin="0 0 0" Spacing="1 1 1">
  <Piece Extent="0 79 0 19 0 19">
    <PointData Scalars="density">
       <DataArray type="Float32" Name="reddensity" NumberOfComponents="1" format="ascii">
      0   0   0   0   0   
      0   0   0   0   0   
      0   0   0   0   0   
      0   0   0   0   0   
      0   0   0   0   0   
      0   0   0   0   0   
      0   0   0   0   0   
      0   0   0   0   0   
      0   0   0   0   0   
      0   0   0   0   0   
      0   0   0   0   0   
      0   0   0   0   0   
      0   0   0   0   0   
      0   0   0   0   0   
      0   0   0   0   0   
      0   0   0   0   0   
      0   0   0   0   0   
      0   0   0   0   0   
      0   0   0   0   0   
      0   0   0   0   0   
      0   0   0   0   0   
      0   0   0   0   0   
      0   0   0   0   0   
      0   0   0   0   0   
      0   0   0   0   0   
      0   0   0   0   0   
      0   0   0   0   0   
      0   0   0   0   0   
      0   0   0   0   0   
      0   0   0   0   0   
      0   0   0   0   0   
      0   0   0   0   0   
      0   0   0   0   0   
      0   0   0   0   0   
      0   0   0   0   0   
      0   0   0   0   0   
      0   0   0   0   0   
      0   0   0   0   0   
      0   0   0   0   0   
      0   0   0   0   0   
      0   0   0   0   0   
      0   0   0   0   0   
      0   0   0   0   0   
      0   0   0   0   0   
      0   0   0   0   0   
      0   0   0   0   0   
      0   0   0   0   0   
      0   0   0   0   0   
      0   0   0   0   0   
      0   0   0   0   0   
      0   0   0   0   0   
      0   0   0   0   0   
      0   0   0   0   0   
      0   0   0   0   0   
      0   0   0   0   0   
      0   0   0   0   0   
      0   0   0   0   0   
      0   0   0   0   0   
      0   0   0   0   0   
      0   0   0   0   0   
      0   0   0   0   0   
      0   0   0   0   0   
      0   0   0   0   0   
      0   0   0   0   0   
      0   0   0   0   0   
      0   0   0   0   0   
      0   0   0   0   0   
      0   0   0   0   0   
      0   0   0   0   0   
      0   0   0   0   0   
      0   0   0   0   0   
      0   0   0   0   0   
      0   0   0   0   0   
      0   0   0   0   0   
      0   0   0   0   0   
      0   0   0   0   0   
      0   0   0   0   0   
      0   0   0   0   0   
      0   0   0   0   0   
      0   0   0   0   0   
      0   0   0   0   0   
      0   0   0   0   0   
      0   0   0   0   0   
      0   0   0   0   0   
      0   0   0   0   0   
      0   0   0   0   0   
      0   0   0   0   0   
      0   0   0   0   0   
      0   0   0   0   0   
      0   0   0   0   0   
      0   0   0   0   0   
      0   0   0   0   0   
      0   0   0   0   0   
      0   0   0   0   0   
      0   0   0   0   0   
      0   0   0   0   0   
      0   0   0   0   0   
      0   0   0   0   0   
      0   0   0   0   0   
      0   0   0   0   0   
      0   0   0   0   0   
      0   0   0   0   0   
      0   0   0   0   0   
      0   0   0   0   0   
      0   0   0   0   0   
      0   0   0   0   0   
      0   0   0   0   0   
      0   0   0   0   0   
      0   0   0   0   0   
      0   0   0   0   0   
      0   0   0   0   0   
      0   0   0   0   0   
      0   0   0   0   0   
      0   0   0   0   0   
      0   0   0   0   0   
      0   0   0   0   0   
      0   0   0   0   0   
      0   0   0   0   0   
      0   0   0   0   0   
      0   0   0   0   0   
      0   0   0   0   0   
      0   0   0   0   0   
      0   0   0   0   0   
      0   0   0   0   0   
      0   0   0   0   0   
      0   0   0   0   0   
      0   0   0   0   0   
      0   0   0   0   0   
      0   0   0   0   0   
      0   0   0   0   0   
      0   0   0   0   0   
      0   0   0   0   0   
      0   0   0   0   0   
      0   0   0   0   0   
      0   0   0   0   0   
      0   0   0   0   0   
      0   0   0   0   0   
      0   0   0   0   0   
      0   0   0   0   0   
      0   0   0   0   0   
      0   0   0   0   0   
      0   0   0   0   0   
      0   0   0   0   0   
      0   0   0   0   0   
      0   0   0   0   0   
      0   0   0   0   0   
      0   0   0   0   0   
      0   0   0   0   0   
      0   0   0   0   0   
      0   0   0   0   0   
      0   0   0   0   0   
      0   0   0   0   0   
      0   0   0   0   0   
      0   0   0   0   0   
      0   0   0   0   0   
      0   0   0   0   0   
      0   0   0   0   0   
      0   0   0   0   0   
      0   0   0   0   0   
      0   0   0   0   0   
      0   0   0   0   0   
      0   0   0   0   0   
      0   0   0   0   0   
      0   0   0   0   0   
      0   0   0   0   0   
      0   0   0   0   0   
      0   0   0   0   0   
      0   0   0   0   0   
      0   0   0   0   0   
      0   0   0   0   0   
      0   0   0   0   0   
      0   0   0   0   0   
      0   0   0   0   0   
      0   0   0   0   0   
      0   0   0   0   0   
      0   0   0   0   0   
      0   0   0   0   0   
      0   0   0   0   0   
      0   0   0   0   0   
      0   0   0   0   0   
      0   0   0   0   0   
      0   0   0   0   0   
      0   0   0   0   0   
      0   0   0   0   0   
      0   0   0   0   0   
      0   0   0   0   0   
      0   0   0   0   0   
      0   0   0   0   0   
      0   0   0   0   0   
      0   0   0   0   0   
      0   0   0   0   0   
      0   0   0   0   0   
      0   0   0   0   0   
      0   0   0   0   0   
      0   0   0   0   0   
      0   0   0   0   0   
      0   0   0   0   0   
      0   0   0   0   0   
      0   0   0   0   0   
      0   0   0   0   0   
      0   0   0   0   0   
      0   0   0   0   0   
      0   0   0   0   0   
      0   0   0   0   0   
      0   0   0   0   0   
      0   0   0   0   0   
      0   0   0   0   0   
      0   0   0   0   0   
      0   0   0   0   0   
      0   0   0   0   0   
      0   0   0   0   0   
      0   0   0   0   0   
      0   0   0   0   0   
      0   0   0   0   0   
      0   0   0   0   0   
      0   0   0   0   0   
      0   0   0   0   0   
      0   0   0   0   0   
      0   0   0   0   0   
      0   0   0   0   0   
      0   0   0   0   0   
      0   0   0   0   0   
      0   0   0   0   0   
      0   0   0   0   0   
      0   0   0   0   0   
      0   0   0   0   0   
      0   0   0   0   0   
      0   0   0   0   0   
      0   0   0   0   0   
      0   0   0   0   0   
      0   0   0   0   0   
      0   0   0   0   0   
      0   0   0   0   0   
      0   0   0   0   0   
      0   0   0   0   0   
      0   0   0   0   0   
      0   0   0   0   0   
      0   0   0   0   0   
      0   0   0   0   0   
      0   0   0   0   0   
      0   0   0   0   0   
      0   0   0   0   0   
      0   0   0   0   0   
      0   0   0   0   0   
      0   0   0   0   0   
      0   0   0   0   0   
      0   0   0   0   0   
      0   0   0   0   0   
      0   0   0   0   0   
      0   0   0   0   0   
      0   0   0   0   0   
      0   0   0   0   0   
      0   0   0   0   0   
      0   0   0   0   0   
      0   0   0   0   0   
      0   0   0   0   0   
      0   0   0   0   0   
      0   0   0   0   0   
      0   0   0   0   0   
      0   0   0   0   0   
      0   0   0   0   0   
      0   0   0   0   0   
      0   0   0   0   0   
      0   0   0   0   0   
      0   0   0   0   0   
      0   0   0   0   0   
      0   0   0   0   0   
      0   0   0   0   0   
      0   0   0   0   0   
      0   0   0   0   0   
      0   0   0   0   0   
      0   0   0   0   0   
      0   0   0   0   0   
      0   0   0   0   0   
      0   0   0   0   0   
      0   0   0   0   0   
      0   0   0   0   0   
      0   0   0   0   0   
      0   0   0   0   0   
      0   0   0   0   0   
      0   0   0   0   0   
      0   0   0   0   0   
      0   0   0   0   0   
      0   0   0   0   0   
      0   0   0   0   0   
      0   0   0   0   0   
      0   0   0   0   0   
      0   0   0   0   0   
      0   0   0   0   0   
      0   0   0   0   0   
      0   0   0   0   0   
      0   0   0   0   0   
      0   0   0   0   0   
      0   0   0   0   0   
      0   0   0   0   0   
      0   0   0   0   0   
      0   0   0   0   0   
      0   0   0   0   0   
      0   0   0   0   0   
      0   0   0   0   0   
      0   0   0   0   0   
      0   0   0   0   0   
      0   0   0   0   0   
      0   0   0   0   0   
      0   0   0   0   0   
      0   0   0   0   0   
      0   0   0   0   0   
      0   0   0   0   0   
      0   0   0   0   0   
      0   0   0   0   0   
      0   0   0   0   0   
      0   0   0   0   0   
      0   0   0   0   0   
      0   0   0   0   0   
      0   0   0   0   0   
      0   0   0   0   0   
      0   0   0   0   0   
      0   0   0   0   0   
      0   0   0   0   0   
      0   0   0   0   0   
      0   0   0   0   0   
      0   0   0   0   0   
      0   0   0   0   0   
      0   0   0   0   0   
      0   0   0   0   0   
      0   0   0   0   0   
      0   0   0   0   0   
      0   0   0   0   0   
      0   0   0   0   0   
      0   0   0   0   0   
      0   0   0   0   0   
      0   0   0   0   0   
      0   0   0   0   0   
      0   0   0   0   0   
      0   0   0   0   0   
      0   0   0   0   0   
      0.0841662855416   0.0841699041596   0.0841807490611   0.0841987872655   0.0842239633969   
      0.0842561990776   0.0842953920899   0.08434141532   0.0843941154984   0.084453311762   
      0.0845187940634   0.0845903214656   0.0846676203636   0.0847503826858   0.0848382641373   
      0.0849308825558   0.0850278164604   0.0851286038834   0.0852327415828   0.0853396847363   
      0.0854488472249   0.0855596026092   0.0856712858993   0.0857831962083   0.0858946003637   
      0.086004737532   0.0861128248809   0.0862180642775   0.0863196499789   0.0864167772366   
      0.0865086516923   0.0865944994037   0.0866735772994   0.0867451838308   0.0868086695589   
      0.0868634473996   0.0869090022417   0.0869448996584   0.086970793446   0.0869864317564   
      0.0869916616265   0.0869864317564   0.086970793446   0.0869448996584   0.0869090022417   
      0.0868634473996   0.0868086695589   0.0867451838308   0.0866735772994   0.0865944994037   
      0.0865086516923   0.0864167772366   0.0863196499789   0.0862180642775   0.0861128248809   
      0.086004737532   0.0858946003637   0.0857831962083   0.0856712858993   0.0855596026092   
      0.0854488472249   0.0853396847363   0.0852327415828   0.0851286038834   0.0850278164604   
      0.0849308825558   0.0848382641373   0.0847503826858   0.0846676203636   0.0845903214656   
      0.0845187940634   0.084453311762   0.0843941154984   0.08434141532   0.0842953920899   
      0.0842561990776   0.0842239633969   0.0841987872655   0.0841807490611   0.0841699041596   
      0.0929515902807   0.0929567799081   0.0929723334238   0.092998204544   0.0930343155138   
      0.0930805561939   0.0931367827979   0.0932028163004   0.0932784405407   0.0933634000552   
      0.0934573976808   0.0935600919831   0.0936710945745   0.0937899673981   0.0939162200718   
      0.0940493073957   0.0941886271435   0.0943335182707   0.0944832596807   0.0946370697035   
      0.094794106438   0.0949534691154   0.0951142006261   0.0952752913443   0.0954356843546   
      0.0955942821612   0.0957499549131   0.095901550139   0.0960479039278   0.0961878534354   
      0.0963202505382   0.096443976397   0.0965579566363   0.0966611768014   0.0967526977134   
      0.0968316703208   0.096897349635   0.0969491073451   0.0969864427324   0.0970089915444   
      0.0970165325471   0.0970089915444   0.0969864427324   0.0969491073451   0.096897349635   
      0.0968316703208   0.0967526977134   0.0966611768014   0.0965579566363   0.096443976397   
      0.0963202505382   0.0961878534354   0.0960479039278   0.095901550139   0.0957499549131   
      0.0955942821612   0.0954356843546   0.0952752913443   0.0951142006261   0.0949534691154   
      0.094794106438   0.0946370697035   0.0944832596807   0.0943335182707   0.0941886271435   
      0.0940493073957   0.0939162200718   0.0937899673981   0.0936710945745   0.0935600919831   
      0.0934573976808   0.0933634000552   0.0932784405407   0.0932028163004   0.0931367827979   
      0.0930805561939   0.0930343155138   0.092998204544   0.0929723334238   0.0929567799081   
      0.108099938195   0.108108415088   0.108133821118   0.108176082021   0.108235072972   
      0.108310617008   0.108402482874   0.108510382281   0.108633966665   0.10877282347   
      0.108926472053   0.10909435928   0.109275854956   0.109470247189   0.109676737871   
      0.109894438438   0.110122366126   0.110359440939   0.110604483561   0.110856214488   
      0.111113254609   0.111374127508   0.111637263716   0.111901007124   0.112163623726   
      0.11242331281   0.112678220643   0.112926456625   0.11316611179   0.113395279452   
      0.113612077685   0.113814673235   0.114001306398   0.114170316275   0.114320165821   
      0.114449466017   0.114556998514   0.114641736092   0.114702860341   0.114739776022   
      0.114752121656   0.114739776022   0.114702860341   0.114641736092   0.114556998514   
      0.114449466017   0.114320165821   0.114170316275   0.114001306398   0.113814673235   
      0.113612077685   0.113395279452   0.11316611179   0.112926456625   0.112678220643   
      0.11242331281   0.112163623726   0.111901007124   0.111637263716   0.111374127508   
      0.111113254609   0.110856214488   0.110604483561   0.110359440939   0.110122366126   
      0.109894438438   0.109676737871   0.109470247189   0.109275854956   0.10909435928   
      0.108926472053   0.10877282347   0.108633966665   0.108510382281   0.108402482874   
      0.108310617008   0.108235072972   0.108176082021   0.108133821118   0.108108415088   
      0.120803680009   0.12081570272   0.120851735818   0.120911673735   0.120995338984   
      0.12110247988   0.121232767384   0.121385791143   0.121561054779   0.121757970513   
      0.121975853263   0.122213914321   0.122471254807   0.122746859079   0.123039588347   
      0.123348174753   0.123671216195   0.124007172253   0.12435436152   0.124710960728   
      0.125075006011   0.125444396644   0.125816901602   0.126190169179   0.126561739914   
      0.12692906292   0.127289515683   0.127640427224   0.127979104454   0.128302861368   
      0.128609050656   0.128895097126   0.129158532291   0.129397029312   0.129608437495   
      0.129790815442   0.129942461987   0.130061944064   0.130148120718   0.130200162566   
      0.130217566119   0.130200162566   0.130148120718   0.130061944064   0.129942461987   
      0.129790815442   0.129608437495   0.129397029312   0.129158532291   0.128895097126   
      0.128609050656   0.128302861368   0.127979104454   0.127640427224   0.127289515683   
      0.12692906292   0.126561739914   0.126190169179   0.125816901602   0.125444396644   
      0.125075006011   0.124710960728   0.12435436152   0.124007172253   0.123671216195   
      0.123348174753   0.123039588347   0.122746859079   0.122471254807   0.122213914321   
      0.121975853263   0.121757970513   0.121561054779   0.121385791143   0.121232767384   
      0.12110247988   0.120995338984   0.120911673735   0.120851735818   0.12081570272   
      0.132756980539   0.132772544348   0.132819189682   0.132896777659   0.133005074793   
      0.133143750004   0.133312370497   0.133510396599   0.13373717562   0.133991934902   
      0.13427377419   0.134581657524   0.134914404894   0.135270683924   0.135649001894   
      0.136047698474   0.136464939537   0.136898712483   0.137346823528   0.137806897381   
      0.138276379785   0.138752543313   0.139232496818   0.139713198825   0.1401914751   
      0.140664040492   0.141127525041   0.14157850419   0.142013532787   0.142429182429   
      0.142822081519   0.143188957317   0.143526679101   0.1438323015   0.144103106989   
      0.144336646487   0.144530777063   0.144683695736   0.144793968489   0.144860553705   
      0.144882819393   0.144860553705   0.144793968489   0.144683695736   0.144530777063   
      0.144336646487   0.144103106989   0.1438323015   0.143526679101   0.143188957317   
      0.142822081519   0.142429182429   0.142013532787   0.14157850419   0.141127525041   
      0.140664040492   0.1401914751   0.139713198825   0.139232496818   0.138752543313   
      0.138276379785   0.137806897381   0.137346823528   0.136898712483   0.136464939537   
      0.136047698474   0.135649001894   0.135270683924   0.134914404894   0.134581657524   
      0.13427377419   0.133991934902   0.13373717562   0.133510396599   0.133312370497   
      0.133143750004   0.133005074793   0.132896777659   0.132819189682   0.132772544348   
      0.143098952323   0.143117577595   0.143173396864   0.143266239756   0.143395819905   
      0.143561731366   0.143763443704   0.144000295832   0.144271488736   0.144576077253   
      0.144912961106   0.145280875447   0.145678381203   0.146103855565   0.146555483025   
      0.147031247371   0.147528925137   0.148046081005   0.148580065663   0.149128016663   
      0.14968686276   0.150253332195   0.150823965323   0.151395131871   0.151963053028   
      0.152523828411   0.153073467805   0.153607927422   0.154123150226   0.154615109761   
      0.155079856698   0.155513567241   0.155912592401   0.156273507058   0.156593157714   
      0.156868707826   0.15709767963   0.157277991445   0.157407989545   0.15748647381   
      0.157512716518   0.15748647381   0.157407989545   0.157277991445   0.15709767963   
      0.156868707826   0.156593157714   0.156273507058   0.155912592401   0.155513567241   
      0.155079856698   0.154615109761   0.154123150226   0.153607927422   0.153073467805   
      0.152523828411   0.151963053028   0.151395131871   0.150823965323   0.150253332195   
      0.14968686276   0.149128016663   0.148580065663   0.148046081005   0.147528925137   
      0.147031247371   0.146555483025   0.146103855565   0.145678381203   0.145280875447   
      0.144912961106   0.144576077253   0.144271488736   0.144000295832   0.143763443704   
      0.143561731366   0.143395819905   0.143266239756   0.143173396864   0.143117577595   
      0.151224657244   0.151245626972   0.151308470799   0.151412991838   0.151558859242   
      0.151745604193   0.15197261442   0.152239127335   0.152544221965   0.152886809866   
      0.153265625282   0.153679214837   0.154125927108   0.154603902494   0.155111063817   
      0.155645108168   0.156203500528   0.156783469724   0.157382007292   0.157995869803   
      0.158621585184   0.159255463482   0.159893612476   0.16053195838   0.161166271777   
      0.161792198757   0.162405297072   0.163001076921   0.163575045834   0.164122756933   
      0.164639859732   0.165122152473   0.165565634961   0.165966560761   0.166321487627   
      0.166627325047   0.166881377851   0.167081384889   0.167225551922   0.167312578002   
      0.167341674733   0.167312578002   0.167225551922   0.167081384889   0.166881377851   
      0.166627325047   0.166321487627   0.165966560761   0.165565634961   0.165122152473   
      0.164639859732   0.164122756933   0.163575045834   0.163001076921   0.162405297072   
      0.161792198757   0.161166271777   0.16053195838   0.159893612476   0.159255463482   
      0.158621585184   0.157995869803   0.157382007292   0.156783469724   0.156203500528   
      0.155645108168   0.155111063817   0.154603902494   0.154125927108   0.153679214837   
      0.153265625282   0.152886809866   0.152544221965   0.152239127335   0.15197261442   
      0.151745604193   0.151558859242   0.151412991838   0.151308470799   0.151245626972   
      0.156750725565   0.156773241338   0.156840716973   0.156952936552   0.157109537322   
      0.157310005435   0.157553670109   0.157839696345   0.158167076395   0.158534620181   
      0.158940944977   0.159384464663   0.159863378947   0.160375663002   0.160919058021   
      0.161491063208   0.162088929807   0.162709657747   0.163349995511   0.164006443792   
      0.164675263483   0.165352488439   0.166033943374   0.166715267114   0.167391941284   
      0.168059324333   0.168712690614   0.169347274084   0.169958315966   0.170541115612   
      0.171091083625   0.171603796209   0.172075049669   0.172500913905   0.172877783789   
      0.173202427346   0.173472029704   0.173684231916   0.173837163849   0.173929470463   
      0.173960330968   0.173929470463   0.173837163849   0.173684231916   0.173472029704   
      0.173202427346   0.172877783789   0.172500913905   0.172075049669   0.171603796209   
      0.171091083625   0.170541115612   0.169958315966   0.169347274084   0.168712690614   
      0.168059324333   0.167391941284   0.166715267114   0.166033943374   0.165352488439   
      0.164675263483   0.164006443792   0.163349995511   0.162709657747   0.162088929807   
      0.161491063208   0.160919058021   0.160375663002   0.159863378947   0.159384464663   
      0.158940944977   0.158534620181   0.158167076395   0.157839696345   0.157553670109   
      0.157310005435   0.157109537322   0.156952936552   0.156840716973   0.156773241338   
      0.159530630723   0.159553906253   0.159623657862   0.159739659715   0.159901532446   
      0.160108738779   0.160360577526   0.160656176121   0.160994481868   0.161374252163   
      0.161794043966   0.16225220289   0.162746852311   0.163275882966   0.163836943553   
      0.164427432899   0.16504449429   0.165685012576   0.166345614647   0.167022673886   
      0.167712319093   0.168410448355   0.169112748182   0.169814718103   0.17051170078   
      0.17119891748   0.171871508608   0.172524578791   0.173153245834   0.173752692726   
      0.174318221742   0.174845309572   0.175329662398   0.175767269758   0.176154456112   
      0.176487929039   0.176764823083   0.176982738386   0.177139773334   0.177234550608   
      0.177266236136   0.177234550608   0.177139773334   0.176982738386   0.176764823083   
      0.176487929039   0.176154456112   0.175767269758   0.175329662398   0.174845309572   
      0.174318221742   0.173752692726   0.173153245834   0.172524578791   0.171871508608   
      0.17119891748   0.17051170078   0.169814718103   0.169112748182   0.168410448355   
      0.167712319093   0.167022673886   0.166345614647   0.165685012576   0.16504449429   
      0.164427432899   0.163836943553   0.163275882966   0.162746852311   0.16225220289   
      0.161794043966   0.161374252163   0.160994481868   0.160656176121   0.160360577526   
      0.160108738779   0.159901532446   0.159739659715   0.159623657862   0.159553906253   
      0.159530630723   0.159553906253   0.159623657862   0.159739659715   0.159901532446   
      0.160108738779   0.160360577526   0.160656176121   0.160994481868   0.161374252163   
      0.161794043966   0.16225220289   0.162746852311   0.163275882966   0.163836943553   
      0.164427432899   0.16504449429   0.165685012576   0.166345614647   0.167022673886   
      0.167712319093   0.168410448355   0.169112748182   0.169814718103   0.17051170078   
      0.17119891748   0.171871508608   0.172524578791   0.173153245834   0.173752692726   
      0.174318221742   0.174845309572   0.175329662398   0.175767269758   0.176154456112   
      0.176487929039   0.176764823083   0.176982738386   0.177139773334   0.177234550608   
      0.177266236136   0.177234550608   0.177139773334   0.176982738386   0.176764823083   
      0.176487929039   0.176154456112   0.175767269758   0.175329662398   0.174845309572   
      0.174318221742   0.173752692726   0.173153245834   0.172524578791   0.171871508608   
      0.17119891748   0.17051170078   0.169814718103   0.169112748182   0.168410448355   
      0.167712319093   0.167022673886   0.166345614647   0.165685012576   0.16504449429   
      0.164427432899   0.163836943553   0.163275882966   0.162746852311   0.16225220289   
      0.161794043966   0.161374252163   0.160994481868   0.160656176121   0.160360577526   
      0.160108738779   0.159901532446   0.159739659715   0.159623657862   0.159553906253   
      0.156750725565   0.156773241338   0.156840716973   0.156952936552   0.157109537322   
      0.157310005435   0.157553670109   0.157839696345   0.158167076395   0.158534620181   
      0.158940944977   0.159384464663   0.159863378947   0.160375663002   0.160919058021   
      0.161491063208   0.162088929807   0.162709657747   0.163349995511   0.164006443792   
      0.164675263483   0.165352488439   0.166033943374   0.166715267114   0.167391941284   
      0.168059324333   0.168712690614   0.169347274084   0.169958315966   0.170541115612   
      0.171091083625   0.171603796209   0.172075049669   0.172500913905   0.172877783789   
      0.173202427346   0.173472029704   0.173684231916   0.173837163849   0.173929470463   
      0.173960330968   0.173929470463   0.173837163849   0.173684231916   0.173472029704   
      0.173202427346   0.172877783789   0.172500913905   0.172075049669   0.171603796209   
      0.171091083625   0.170541115612   0.169958315966   0.169347274084   0.168712690614   
      0.168059324333   0.167391941284   0.166715267114   0.166033943374   0.165352488439   
      0.164675263483   0.164006443792   0.163349995511   0.162709657747   0.162088929807   
      0.161491063208   0.160919058021   0.160375663002   0.159863378947   0.159384464663   
      0.158940944977   0.158534620181   0.158167076395   0.157839696345   0.157553670109   
      0.157310005435   0.157109537322   0.156952936552   0.156840716973   0.156773241338   
      0.151224657244   0.151245626972   0.151308470799   0.151412991838   0.151558859242   
      0.151745604193   0.15197261442   0.152239127335   0.152544221965   0.152886809866   
      0.153265625282   0.153679214837   0.154125927108   0.154603902494   0.155111063817   
      0.155645108168   0.156203500528   0.156783469724   0.157382007292   0.157995869803   
      0.158621585184   0.159255463482   0.159893612476   0.16053195838   0.161166271777   
      0.161792198757   0.162405297072   0.163001076921   0.163575045834   0.164122756933   
      0.164639859732   0.165122152473   0.165565634961   0.165966560761   0.166321487627   
      0.166627325047   0.166881377851   0.167081384889   0.167225551922   0.167312578002   
      0.167341674733   0.167312578002   0.167225551922   0.167081384889   0.166881377851   
      0.166627325047   0.166321487627   0.165966560761   0.165565634961   0.165122152473   
      0.164639859732   0.164122756933   0.163575045834   0.163001076921   0.162405297072   
      0.161792198757   0.161166271777   0.16053195838   0.159893612476   0.159255463482   
      0.158621585184   0.157995869803   0.157382007292   0.156783469724   0.156203500528   
      0.155645108168   0.155111063817   0.154603902494   0.154125927108   0.153679214837   
      0.153265625282   0.152886809866   0.152544221965   0.152239127335   0.15197261442   
      0.151745604193   0.151558859242   0.151412991838   0.151308470799   0.151245626972   
      0.143098952323   0.143117577595   0.143173396864   0.143266239756   0.143395819905   
      0.143561731366   0.143763443704   0.144000295832   0.144271488736   0.144576077253   
      0.144912961106   0.145280875447   0.145678381203   0.146103855565   0.146555483025   
      0.147031247371   0.147528925137   0.148046081005   0.148580065663   0.149128016663   
      0.14968686276   0.150253332195   0.150823965323   0.151395131871   0.151963053028   
      0.152523828411   0.153073467805   0.153607927422   0.154123150226   0.154615109761   
      0.155079856698   0.155513567241   0.155912592401   0.156273507058   0.156593157714   
      0.156868707826   0.15709767963   0.157277991445   0.157407989545   0.15748647381   
      0.157512716518   0.15748647381   0.157407989545   0.157277991445   0.15709767963   
      0.156868707826   0.156593157714   0.156273507058   0.155912592401   0.155513567241   
      0.155079856698   0.154615109761   0.154123150226   0.153607927422   0.153073467805   
      0.152523828411   0.151963053028   0.151395131871   0.150823965323   0.150253332195   
      0.14968686276   0.149128016663   0.148580065663   0.148046081005   0.147528925137   
      0.147031247371   0.146555483025   0.146103855565   0.145678381203   0.145280875447   
      0.144912961106   0.144576077253   0.144271488736   0.144000295832   0.143763443704   
      0.143561731366   0.143395819905   0.143266239756   0.143173396864   0.143117577595   
      0.132756980539   0.132772544348   0.132819189682   0.132896777659   0.133005074793   
      0.133143750004   0.133312370497   0.133510396599   0.13373717562   0.133991934902   
      0.13427377419   0.134581657524   0.134914404894   0.135270683924   0.135649001894   
      0.136047698474   0.136464939537   0.136898712483   0.137346823528   0.137806897381   
      0.138276379785   0.138752543313   0.139232496818   0.139713198825   0.1401914751   
      0.140664040492   0.141127525041   0.14157850419   0.142013532787   0.142429182429   
      0.142822081519   0.143188957317   0.143526679101   0.1438323015   0.144103106989   
      0.144336646487   0.144530777063   0.144683695736   0.144793968489   0.144860553705   
      0.144882819393   0.144860553705   0.144793968489   0.144683695736   0.144530777063   
      0.144336646487   0.144103106989   0.1438323015   0.143526679101   0.143188957317   
      0.142822081519   0.142429182429   0.142013532787   0.14157850419   0.141127525041   
      0.140664040492   0.1401914751   0.139713198825   0.139232496818   0.138752543313   
      0.138276379785   0.137806897381   0.137346823528   0.136898712483   0.136464939537   
      0.136047698474   0.135649001894   0.135270683924   0.134914404894   0.134581657524   
      0.13427377419   0.133991934902   0.13373717562   0.133510396599   0.133312370497   