<?xml version="1.0"?>
<VTKFile type="ImageData" version="0.1" byte_order="LittleEndian">
  <ImageData WholeExtent="0 79 0 19 0 19" Origin="0 0 0" Spacing="1 1 1">
  <Piece Extent="0 79 0 19 0 19">
    <PointData Scalars="density">
       <DataArray type="Float32" Name="reddensity" NumberOfComponents="1" format="ascii">
      0   0   0   0   0   
      0   0   0   0   0   
      0   0   0   0   0   
      0   0   0   0   0   
      0   0   0   0   0   
      0   0   0   0   0   
      0   0   0   0   0   
      0   0   0   0   0   
      0   0   0   0   0   
      0   0   0   0   0   
      0   0   0   0   0   
      0   0   0   0   0   
      0   0   0   0   0   
      0   0   0   0   0   
      0   0   0   0   0   
      0   0   0   0   0   
      0   0   0   0   0   
      0   0   0   0   0   
      0   0   0   0   0   
      0   0   0   0   0   
      0   0   0   0   0   
      0   0   0   0   0   
      0   0   0   0   0   
      0   0   0   0   0   
      0   0   0   0   0   
      0   0   0   0   0   
      0   0   0   0   0   
      0   0   0   0   0   
      0   0   0   0   0   
      0   0   0   0   0   
      0   0   0   0   0   
      0   0   0   0   0   
      0   0   0   0   0   
      0   0   0   0   0   
      0   0   0   0   0   
      0   0   0   0   0   
      0   0   0   0   0   
      0   0   0   0   0   
      0   0   0   0   0   
      0   0   0   0   0   
      0   0   0   0   0   
      0   0   0   0   0   
      0   0   0   0   0   
      0   0   0   0   0   
      0   0   0   0   0   
      0   0   0   0   0   
      0   0   0   0   0   
      0   0   0   0   0   
      0   0   0   0   0   
      0   0   0   0   0   
      0   0   0   0   0   
      0   0   0   0   0   
      0   0   0   0   0   
      0   0   0   0   0   
      0   0   0   0   0   
      0   0   0   0   0   
      0   0   0   0   0   
      0   0   0   0   0   
      0   0   0   0   0   
      0   0   0   0   0   
      0   0   0   0   0   
      0   0   0   0   0   
      0   0   0   0   0   
      0   0   0   0   0   
      0   0   0   0   0   
      0   0   0   0   0   
      0   0   0   0   0   
      0   0   0   0   0   
      0   0   0   0   0   
      0   0   0   0   0   
      0   0   0   0   0   
      0   0   0   0   0   
      0   0   0   0   0   
      0   0   0   0   0   
      0   0   0   0   0   
      0   0   0   0   0   
      0   0   0   0   0   
      0   0   0   0   0   
      0   0   0   0   0   
      0   0   0   0   0   
      0   0   0   0   0   
      0   0   0   0   0   
      0   0   0   0   0   
      0   0   0   0   0   
      0   0   0   0   0   
      0   0   0   0   0   
      0   0   0   0   0   
      0   0   0   0   0   
      0   0   0   0   0   
      0   0   0   0   0   
      0   0   0   0   0   
      0   0   0   0   0   
      0   0   0   0   0   
      0   0   0   0   0   
      0   0   0   0   0   
      0   0   0   0   0   
      0   0   0   0   0   
      0   0   0   0   0   
      0   0   0   0   0   
      0   0   0   0   0   
      0   0   0   0   0   
      0   0   0   0   0   
      0   0   0   0   0   
      0   0   0   0   0   
      0   0   0   0   0   
      0   0   0   0   0   
      0   0   0   0   0   
      0   0   0   0   0   
      0   0   0   0   0   
      0   0   0   0   0   
      0   0   0   0   0   
      0   0   0   0   0   
      0   0   0   0   0   
      0   0   0   0   0   
      0   0   0   0   0   
      0   0   0   0   0   
      0   0   0   0   0   
      0   0   0   0   0   
      0   0   0   0   0   
      0   0   0   0   0   
      0   0   0   0   0   
      0   0   0   0   0   
      0   0   0   0   0   
      0   0   0   0   0   
      0   0   0   0   0   
      0   0   0   0   0   
      0   0   0   0   0   
      0   0   0   0   0   
      0   0   0   0   0   
      0   0   0   0   0   
      0   0   0   0   0   
      0   0   0   0   0   
      0   0   0   0   0   
      0   0   0   0   0   
      0   0   0   0   0   
      0   0   0   0   0   
      0   0   0   0   0   
      0   0   0   0   0   
      0   0   0   0   0   
      0   0   0   0   0   
      0   0   0   0   0   
      0   0   0   0   0   
      0   0   0   0   0   
      0   0   0   0   0   
      0   0   0   0   0   
      0   0   0   0   0   
      0   0   0   0   0   
      0   0   0   0   0   
      0   0   0   0   0   
      0   0   0   0   0   
      0   0   0   0   0   
      0   0   0   0   0   
      0   0   0   0   0   
      0   0   0   0   0   
      0   0   0   0   0   
      0   0   0   0   0   
      0   0   0   0   0   
      0   0   0   0   0   
      0   0   0   0   0   
      0   0   0   0   0   
      0   0   0   0   0   
      0   0   0   0   0   
      0   0   0   0   0   
      0   0   0   0   0   
      0   0   0   0   0   
      0   0   0   0   0   
      0   0   0   0   0   
      0   0   0   0   0   
      0   0   0   0   0   
      0   0   0   0   0   
      0   0   0   0   0   
      0   0   0   0   0   
      0   0   0   0   0   
      0   0   0   0   0   
      0   0   0   0   0   
      0   0   0   0   0   
      0   0   0   0   0   
      0   0   0   0   0   
      0   0   0   0   0   
      0   0   0   0   0   
      0   0   0   0   0   
      0   0   0   0   0   
      0   0   0   0   0   
      0   0   0   0   0   
      0   0   0   0   0   
      0   0   0   0   0   
      0   0   0   0   0   
      0   0   0   0   0   
      0   0   0   0   0   
      0   0   0   0   0   
      0   0   0   0   0   
      0   0   0   0   0   
      0   0   0   0   0   
      0   0   0   0   0   
      0   0   0   0   0   
      0   0   0   0   0   
      0   0   0   0   0   
      0   0   0   0   0   
      0   0   0   0   0   
      0   0   0   0   0   
      0   0   0   0   0   
      0   0   0   0   0   
      0   0   0   0   0   
      0   0   0   0   0   
      0   0   0   0   0   
      0   0   0   0   0   
      0   0   0   0   0   
      0   0   0   0   0   
      0   0   0   0   0   
      0   0   0   0   0   
      0   0   0   0   0   
      0   0   0   0   0   
      0   0   0   0   0   
      0   0   0   0   0   
      0   0   0   0   0   
      0   0   0   0   0   
      0   0   0   0   0   
      0   0   0   0   0   
      0   0   0   0   0   
      0   0   0   0   0   
      0   0   0   0   0   
      0   0   0   0   0   
      0   0   0   0   0   
      0   0   0   0   0   
      0   0   0   0   0   
      0   0   0   0   0   
      0   0   0   0   0   
      0   0   0   0   0   
      0   0   0   0   0   
      0   0   0   0   0   
      0   0   0   0   0   
      0   0   0   0   0   
      0   0   0   0   0   
      0   0   0   0   0   
      0   0   0   0   0   
      0   0   0   0   0   
      0   0   0   0   0   
      0   0   0   0   0   
      0   0   0   0   0   
      0   0   0   0   0   
      0   0   0   0   0   
      0   0   0   0   0   
      0   0   0   0   0   
      0   0   0   0   0   
      0   0   0   0   0   
      0   0   0   0   0   
      0   0   0   0   0   
      0   0   0   0   0   
      0   0   0   0   0   
      0   0   0   0   0   
      0   0   0   0   0   
      0   0   0   0   0   
      0   0   0   0   0   
      0   0   0   0   0   
      0   0   0   0   0   
      0   0   0   0   0   
      0   0   0   0   0   
      0   0   0   0   0   
      0   0   0   0   0   
      0   0   0   0   0   
      0   0   0   0   0   
      0   0   0   0   0   
      0   0   0   0   0   
      0   0   0   0   0   
      0   0   0   0   0   
      0   0   0   0   0   
      0   0   0   0   0   
      0   0   0   0   0   
      0   0   0   0   0   
      0   0   0   0   0   
      0   0   0   0   0   
      0   0   0   0   0   
      0   0   0   0   0   
      0   0   0   0   0   
      0   0   0   0   0   
      0   0   0   0   0   
      0   0   0   0   0   
      0   0   0   0   0   
      0   0   0   0   0   
      0   0   0   0   0   
      0   0   0   0   0   
      0   0   0   0   0   
      0   0   0   0   0   
      0   0   0   0   0   
      0   0   0   0   0   
      0   0   0   0   0   
      0   0   0   0   0   
      0   0   0   0   0   
      0   0   0   0   0   
      0   0   0   0   0   
      0   0   0   0   0   
      0   0   0   0   0   
      0   0   0   0   0   
      0   0   0   0   0   
      0   0   0   0   0   
      0   0   0   0   0   
      0   0   0   0   0   
      0   0   0   0   0   
      0   0   0   0   0   
      0   0   0   0   0   
      0   0   0   0   0   
      0   0   0   0   0   
      0   0   0   0   0   
      0   0   0   0   0   
      0   0   0   0   0   
      0   0   0   0   0   
      0   0   0   0   0   
      0   0   0   0   0   
      0   0   0   0   0   
      0   0   0   0   0   
      0   0   0   0   0   
      0   0   0   0   0   
      0   0   0   0   0   
      0   0   0   0   0   
      0   0   0   0   0   
      0   0   0   0   0   
      0   0   0   0   0   
      0   0   0   0   0   
      0   0   0   0   0   
      0   0   0   0   0   
      0   0   0   0   0   
      0   0   0   0   0   
      0   0   0   0   0   
      0   0   0   0   0   
      0   0   0   0   0   
      0   0   0   0   0   
      0   0   0   0   0   
      0   0   0   0   0   
      0   0   0   0   0   
      0   0   0   0   0   
      0   0   0   0   0   
      0   0   0   0   0   
      0   0   0   0   0   
      0   0   0   0   0   
      0   0   0   0   0   
      0   0   0   0   0   
      0.0817028702818   0.0817116517051   0.0817380109173   0.0817819925252   0.081843670116   
      0.0819231450358   0.0820205445073   0.0821360189062   0.0822697379603   0.0824218855712   
      0.0825926528947   0.0827822292602   0.0829907904524   0.0832184838518   0.083465409925   
      0.083731599598   0.0840169871508   0.0843213784425   0.0846444145475   0.0849855312376   
      0.0853439151944   0.0857184583663   0.0861077124487   0.0865098460379   0.0869226075125   
      0.0873432970677   0.0877687514932   0.0881953451806   0.0886190104297   0.0890352793663   
      0.0894393487236   0.0898261674088   0.090190545284   0.0905272800434   0.0908312975997   
      0.0910978001352   0.0913224150501   0.0915013375312   0.0916314594459   0.0917104777347   
      0.0917369764237   0.0917104777347   0.0916314594459   0.0915013375312   0.0913224150501   
      0.0910978001352   0.0908312975997   0.0905272800434   0.090190545284   0.0898261674088   
      0.0894393487236   0.0890352793663   0.0886190104297   0.0881953451806   0.0877687514932   
      0.0873432970677   0.0869226075125   0.0865098460379   0.0861077124487   0.0857184583663   
      0.0853439151944   0.0849855312376   0.0846444145475   0.0843213784425   0.0840169871508   
      0.083731599598   0.083465409925   0.0832184838518   0.0829907904524   0.0827822292602   
      0.0825926528947   0.0824218855712   0.0822697379603   0.0821360189062   0.0820205445073   
      0.0819231450358   0.081843670116   0.0817819925252   0.0817380109173   0.0817116517051   
      0.0893988593733   0.0894113008816   0.0894486501834   0.0895109812661   0.0895984162615   
      0.0897111235462   0.0898493148225   0.0900132409092   0.090203185887   0.0904194591504   
      0.0906623848274   0.0909322879393   0.0912294766025   0.0915542195324   0.0919067181081   
      0.0922870723323   0.0926952401769   0.0931309900803   0.0935938467662   0.0940830310935   
      0.0945973953267   0.0951353559937   0.0956948273438   0.0962731592358   0.0968670840071   
      0.0974726773657   0.0980853385245   0.0986997945535   0.0993101332117   0.0999098673241   
      0.10049203213   0.101049315058   0.101574215206   0.102059227661   0.102497045767   
      0.102880772849   0.103204133786   0.103461676296   0.103648951963   0.103762667804   
      0.103800800569   0.103762667804   0.103648951963   0.103461676296   0.103204133786   
      0.102880772849   0.102497045767   0.102059227661   0.101574215206   0.101049315058   
      0.10049203213   0.0999098673241   0.0993101332117   0.0986997945535   0.0980853385245   
      0.0974726773657   0.0968670840071   0.0962731592358   0.0956948273438   0.0951353559937   
      0.0945973953267   0.0940830310935   0.0935938467662   0.0931309900803   0.0926952401769   
      0.0922870723323   0.0919067181081   0.0915542195324   0.0912294766025   0.0909322879393   
      0.0906623848274   0.0904194591504   0.090203185887   0.0900132409092   0.0898493148225   
      0.0897111235462   0.0895984162615   0.0895109812661   0.0894486501834   0.0894113008816   
      0.102262589193   0.102282667502   0.102342948539   0.102443570013   0.10258475928   
      0.102766829893   0.102990176296   0.103255266212   0.103562630087   0.10391284682   
      0.104306524844   0.104744277486   0.105226691417   0.10575428697   0.106327469104   
      0.106946467968   0.10761126834   0.108321527727   0.109076483638   0.109874851579   
      0.110714716426   0.111593421273   0.11250745917   0.113452374536   0.114422682049   
      0.115411811406   0.116412086325   0.117414745358   0.118410010485   0.119387207119   
      0.120334936172   0.121241295516   0.122094144769   0.122881404203   0.123591375981   
      0.12421307409   0.124736548408   0.125153188332   0.125455992239   0.125639790617   
      0.125701412904   0.125639790617   0.125455992239   0.125153188332   0.124736548408   
      0.12421307409   0.123591375981   0.122881404203   0.122094144769   0.121241295516   
      0.120334936172   0.119387207119   0.118410010485   0.117414745358   0.116412086325   
      0.115411811406   0.114422682049   0.113452374536   0.11250745917   0.111593421273   
      0.110714716426   0.109874851579   0.109076483638   0.108321527727   0.10761126834   
      0.106946467968   0.106327469104   0.10575428697   0.105226691417   0.104744277486   
      0.104306524844   0.10391284682   0.103562630087   0.103255266212   0.102990176296   
      0.102766829893   0.10258475928   0.102443570013   0.102342948539   0.102282667502   
      0.112471391446   0.112499719649   0.112584774023   0.112726762836   0.112926029712   
      0.113183048029   0.113498412381   0.113872826362   0.11430708573   0.114802055761   
      0.115358641419   0.115977748729   0.116660235669   0.11740685081   0.118218158097   
      0.11909444646   0.120035623537   0.121041093702   0.122109621814   0.123239185696   
      0.124426822171   0.12566847349   0.126958842912   0.128291269836   0.129657635916   
      0.131048313791   0.132452169154   0.13385662481   0.135247792213   0.136610671899   
      0.137929419683   0.139187670953   0.140368911303   0.141456878626   0.142435979832   
      0.143291704719   0.144011020117   0.144582728955   0.144997781163   0.14524952584   
      0.145333896772   0.14524952584   0.144997781163   0.144582728955   0.144011020117   
      0.143291704719   0.142435979832   0.141456878626   0.140368911303   0.139187670953   
      0.137929419683   0.136610671899   0.135247792213   0.13385662481   0.132452169154   
      0.131048313791   0.129657635916   0.128291269836   0.126958842912   0.12566847349   
      0.124426822171   0.123239185696   0.122109621814   0.121041093702   0.120035623537   
      0.11909444646   0.118218158097   0.11740685081   0.116660235669   0.115977748729   
      0.115358641419   0.114802055761   0.11430708573   0.113872826362   0.113498412381   
      0.113183048029   0.112926029712   0.112726762836   0.112584774023   0.112499719649   
      0.12189867771   0.121935334183   0.122045396546   0.122229142102   0.122487027794   
      0.122819681857   0.123227891142   0.123712583065   0.12427480089   0.124915670694   
      0.125636358127   0.126438012856   0.127321698447   0.128288305523   0.129338446293   
      0.13047232916   0.131689613116   0.132989243048   0.134369268988   0.13582665463   
      0.137357082983   0.13895476965   0.140612296448   0.14232047972   0.144068288115   
      0.145842823684   0.147629377555   0.149411567338   0.15117155806   0.152890362464   
      0.154548210537   0.156124973079   0.157600620504   0.1589556963   0.160171784805   
      0.161231954836   0.162121163877   0.162826611266   0.163338032563   0.163647930556   
      0.16375174073   0.163647930556   0.163338032563   0.162826611266   0.162121163877   
      0.161231954836   0.160171784805   0.1589556963   0.157600620504   0.156124973079   
      0.154548210537   0.152890362464   0.15117155806   0.149411567338   0.147629377555   
      0.145842823684   0.144068288115   0.14232047972   0.140612296448   0.13895476965   
      0.137357082983   0.13582665463   0.134369268988   0.132989243048   0.131689613116   
      0.13047232916   0.129338446293   0.128288305523   0.127321698447   0.126438012856   
      0.125636358127   0.124915670694   0.12427480089   0.123712583065   0.123227891142   
      0.122819681857   0.122487027794   0.122229142102   0.122045396546   0.121935334183   
      0.130017220596   0.130061221505   0.130193336059   0.130413897625   0.130723454596   
      0.13112275891   0.131612748682   0.132194523624   0.132869311577   0.133638424084   
      0.134503198654   0.135464925148   0.136524753643   0.137683581363   0.138941916778   
      0.140299719944   0.14175621967   0.143309710138   0.144957332243   0.146694847884   
      0.148516418681   0.150414403487   0.152379191349   0.15439908753   0.156460269502   
      0.158546826983   0.160640895328   0.162722885003   0.164771802373   0.16676564953   
      0.168681884373   0.170497917752   0.172191622566   0.17374183067   0.175128796705   
      0.176334613054   0.177343565921   0.178142428193   0.178720689471   0.179070726855   
      0.17918792163   0.179070726855   0.178720689471   0.178142428193   0.177343565921   
      0.176334613054   0.175128796705   0.17374183067   0.172191622566   0.170497917752   
      0.168681884373   0.16676564953   0.164771802373   0.162722885003   0.160640895328   
      0.158546826983   0.156460269502   0.15439908753   0.152379191349   0.150414403487   
      0.148516418681   0.146694847884   0.144957332243   0.143309710138   0.14175621967   
      0.140299719944   0.138941916778   0.137683581363   0.136524753643   0.135464925148   
      0.134503198654   0.133638424084   0.132869311577   0.132194523624   0.131612748682   
      0.13112275891   0.130723454596   0.130413897625   0.130193336059   0.130061221505   
      0.136407107959   0.136456870244   0.136606282258   0.136855716792   0.137205785968   
      0.137657326663   0.138211378537   0.138869153103   0.139631991815   0.140501310784   
      0.1414785294   0.142564979939   0.143761795318   0.145069772523   0.14648921004   
      0.148019719034   0.149660009985   0.15140765921   0.153258862907   0.155208189986   
      0.157248348539   0.159369983796   0.161561527303   0.163809117031   0.166096605822   
      0.168405670781   0.17071602908   0.173005756965   0.175251699641   0.177429951412   
      0.179516379443   0.181487161512   0.183319308781   0.184991148472   0.186482747733   
      0.187776267715   0.188856244643   0.189709801391   0.190326797983   0.190699932014   
      0.190824800386   0.190699932014   0.190326797983   0.189709801391   0.188856244643   
      0.187776267715   0.186482747733   0.184991148472   0.183319308781   0.181487161512   
      0.179516379443   0.177429951412   0.175251699641   0.173005756965   0.17071602908   
      0.168405670781   0.166096605822   0.163809117031   0.161561527303   0.159369983796   
      0.157248348539   0.155208189986   0.153258862907   0.15140765921   0.149660009985   
      0.148019719034   0.14648921004   0.145069772523   0.143761795318   0.142564979939   
      0.1414785294   0.140501310784   0.139631991815   0.138869153103   0.138211378537   
      0.137657326663   0.137205785968   0.136855716792   0.136606282258   0.136456870244   
      0.140767727487   0.140821380915   0.14098247439   0.141251404327   0.141628820611   
      0.142115609523   0.142712868057   0.143421867899   0.144244006826   0.145180744876   
      0.146233522335   0.147403656438   0.148692213865   0.150099856605   0.151626659897   
      0.153271902619   0.155033832961   0.156909415332   0.158894068197   0.160981406487   
      0.163163006022   0.16542821028   0.167764001146   0.17015495429   0.172583296096   
      0.175029072524   0.177470431417   0.179884009623   0.182245406234   0.184529714966   
      0.186712083446   0.188768265948   0.190675138923   0.192411155023   0.193956719925   
      0.195294485722   0.196409563479   0.197289664608   0.197925185318   0.198309250252   
      0.198437730735   0.198309250252   0.197925185318   0.197289664608   0.196409563479   
      0.195294485722   0.193956719925   0.192411155023   0.190675138923   0.188768265948   
      0.186712083446   0.184529714966   0.182245406234   0.179884009623   0.177470431417   
      0.175029072524   0.172583296096   0.17015495429   0.167764001146   0.16542821028   
      0.163163006022   0.160981406487   0.158894068197   0.156909415332   0.155033832961   
      0.153271902619   0.151626659897   0.150099856605   0.148692213865   0.147403656438   
      0.146233522335   0.145180744876   0.144244006826   0.143421867899   0.142712868057   
      0.142115609523   0.141628820611   0.141251404327   0.14098247439   0.140821380915   
      0.142967444399   0.143023044223   0.143189980547   0.143468660503   0.143859750937   
      0.144364159925   0.144983009022   0.145717594411   0.146569334591   0.14753970184   
      0.148630134394   0.149841926143   0.151176090916   0.15263319902   0.154213184961   
      0.155915127152   0.157737003082   0.159675426838   0.161725379774   0.163879949332   
      0.166130094804   0.16846446162   0.170869266648   0.173328275434   0.175822887688   
      0.178332339881   0.180834024002   0.183303910652   0.185717054287   0.188048150227   
      0.190272108493   0.192364609304   0.194302609213   0.196064774482   0.19763182806   
      0.19898680676   0.200115234476   0.201005224339   0.20164752702   0.202035543757   
      0.202165321457   0.202035543757   0.20164752702   0.201005224339   0.200115234476   
      0.19898680676   0.19763182806   0.196064774482   0.194302609213   0.192364609304   
      0.190272108493   0.188048150227   0.185717054287   0.183303910652   0.180834024002   
      0.178332339881   0.175822887688   0.173328275434   0.170869266648   0.16846446162   
      0.166130094804   0.163879949332   0.161725379774   0.159675426838   0.157737003082   
      0.155915127152   0.154213184961   0.15263319902   0.151176090916   0.149841926143   
      0.148630134394   0.14753970184   0.146569334591   0.145717594411   0.144983009022   
      0.144364159925   0.143859750937   0.143468660503   0.143189980547   0.143023044223   
      0.142967444399   0.143023044223   0.143189980547   0.143468660503   0.143859750937   
      0.144364159925   0.144983009022   0.145717594411   0.146569334591   0.14753970184   
      0.148630134394   0.149841926143   0.151176090916   0.15263319902   0.154213184961   
      0.155915127152   0.157737003082   0.159675426838   0.161725379774   0.163879949332   
      0.166130094804   0.16846446162   0.170869266648   0.173328275434   0.175822887688   
      0.178332339881   0.180834024002   0.183303910652   0.185717054287   0.188048150227   
      0.190272108493   0.192364609304   0.194302609213   0.196064774482   0.19763182806   
      0.19898680676   0.200115234476   0.201005224339   0.20164752702   0.202035543757   
      0.202165321457   0.202035543757   0.20164752702   0.201005224339   0.200115234476   
      0.19898680676   0.19763182806   0.196064774482   0.194302609213   0.192364609304   
      0.190272108493   0.188048150227   0.185717054287   0.183303910652   0.180834024002   
      0.178332339881   0.175822887688   0.173328275434   0.170869266648   0.16846446162   
      0.166130094804   0.163879949332   0.161725379774   0.159675426838   0.157737003082   
      0.155915127152   0.154213184961   0.15263319902   0.151176090916   0.149841926143   
      0.148630134394   0.14753970184   0.146569334591   0.145717594411   0.144983009022   
      0.144364159925   0.143859750937   0.143468660503   0.143189980547   0.143023044223   
      0.140767727487   0.140821380915   0.14098247439   0.141251404327   0.141628820611   
      0.142115609523   0.142712868057   0.143421867899   0.144244006826   0.145180744876   
      0.146233522335   0.147403656438   0.148692213865   0.150099856605   0.151626659897   
      0.153271902619   0.155033832961   0.156909415332   0.158894068197   0.160981406487   
      0.163163006022   0.16542821028   0.167764001146   0.17015495429   0.172583296096   
      0.175029072524   0.177470431417   0.179884009623   0.182245406234   0.184529714966   
      0.186712083446   0.188768265948   0.190675138923   0.192411155023   0.193956719925   
      0.195294485722   0.196409563479   0.197289664608   0.197925185318   0.198309250252   
      0.198437730735   0.198309250252   0.197925185318   0.197289664608   0.196409563479   
      0.195294485722   0.193956719925   0.192411155023   0.190675138923   0.188768265948   
      0.186712083446   0.184529714966   0.182245406234   0.179884009623   0.177470431417   
      0.175029072524   0.172583296096   0.17015495429   0.167764001146   0.16542821028   
      0.163163006022   0.160981406487   0.158894068197   0.156909415332   0.155033832961   
      0.153271902619   0.151626659897   0.150099856605   0.148692213865   0.147403656438   
      0.146233522335   0.145180744876   0.144244006826   0.143421867899   0.142712868057   
      0.142115609523   0.141628820611   0.141251404327   0.14098247439   0.140821380915   
      0.136407107959   0.136456870244   0.136606282258   0.136855716792   0.137205785968   
      0.137657326663   0.138211378537   0.138869153103   0.139631991815   0.140501310784   
      0.1414785294   0.142564979939   0.143761795318   0.145069772523   0.14648921004   
      0.148019719034   0.149660009985   0.15140765921   0.153258862907   0.155208189986   
      0.157248348539   0.159369983796   0.161561527303   0.163809117031   0.166096605822   
      0.168405670781   0.17071602908   0.173005756965   0.175251699641   0.177429951412   
      0.179516379443   0.181487161512   0.183319308781   0.184991148472   0.186482747733   
      0.187776267715   0.188856244643   0.189709801391   0.190326797983   0.190699932014   
      0.190824800386   0.190699932014   0.190326797983   0.189709801391   0.188856244643   
      0.187776267715   0.186482747733   0.184991148472   0.183319308781   0.181487161512   
      0.179516379443   0.177429951412   0.175251699641   0.173005756965   0.17071602908   
      0.168405670781   0.166096605822   0.163809117031   0.161561527303   0.159369983796   
      0.157248348539   0.155208189986   0.153258862907   0.15140765921   0.149660009985   
      0.148019719034   0.14648921004   0.145069772523   0.143761795318   0.142564979939   
      0.1414785294   0.140501310784   0.139631991815   0.138869153103   0.138211378537   
      0.137657326663   0.137205785968   0.136855716792   0.136606282258   0.136456870244   
      0.130017220596   0.130061221505   0.130193336059   0.130413897625   0.130723454596   
      0.13112275891   0.131612748682   0.132194523624   0.132869311577   0.133638424084   
      0.134503198654   0.135464925148   0.136524753643   0.137683581363   0.138941916778   
      0.140299719944   0.14175621967   0.143309710138   0.144957332243   0.146694847884   
      0.148516418681   0.150414403487   0.152379191349   0.15439908753   0.156460269502   
      0.158546826983   0.160640895328   0.162722885003   0.164771802373   0.16676564953   
      0.168681884373   0.170497917752   0.172191622566   0.17374183067   0.175128796705   
      0.176334613054   0.177343565921   0.178142428193   0.178720689471   0.179070726855   
      0.17918792163   0.179070726855   0.178720689471   0.178142428193   0.177343565921   
      0.176334613054   0.175128796705   0.17374183067   0.172191622566   0.170497917752   
      0.168681884373   0.16676564953   0.164771802373   0.162722885003   0.160640895328   
      0.158546826983   0.156460269502   0.15439908753   0.152379191349   0.150414403487   
      0.148516418681   0.146694847884   0.144957332243   0.143309710138   0.14175621967   
      0.140299719944   0.138941916778   0.137683581363   0.136524753643   0.135464925148   
      0.134503198654   0.133638424084   0.132869311577   0.132194523624   0.131612748682   
      0.13112275891   0.130723454596   0.130413897625   0.130193336059   0.130061221505   
      0.12189867771   0.121935334183   0.122045396546   0.122229142102   0.122487027794   
      0.122819681857   0.123227891142   0.123712583065   0.12427480089   0.124915670694   
      0.125636358127   0.126438012856   0.127321698447   0.128288305523   0.129338446293   
      0.13047232916   0.131689613116   0.132989243048   0.134369268988   0.13582665463   
      0.137357082983   0.13895476965   0.140612296448   0.14232047972   0.144068288115   
      0.145842823684   0.147629377555   0.149411567338   0.15117155806   0.152890362464   
      0.154548210537   0.156124973079   0.157600620504   0.1589556963   0.160171784805   
      0.161231954836   0.162121163877   0.162826611266   0.163338032563   0.163647930556   
      0.16375174073   0.163647930556   0.163338032563   0.162826611266   0.162121163877   
      0.161231954836   0.160171784805   0.1589556963   0.157600620504   0.156124973079   
      0.154548210537   0.152890362464   0.15117155806   0.149411567338   0.147629377555   
      0.145842823684   0.144068288115   0.14232047972   0.140612296448   0.13895476965   
      0.137357082983   0.13582665463   0.134369268988   0.132989243048   0.131689613116   
      0.13047232916   0.129338446293   0.128288305523   0.127321698447   0.126438012856   
      0.125636358127   0.124915670694   0.12427480089   0.123712583065   0.123227891142   
      0.122819681857   0.122487027794   0.122229142102   0.122045396546   0.121935334183   