<?xml version="1.0"?>
<VTKFile type="ImageData" version="0.1" byte_order="LittleEndian">
  <ImageData WholeExtent="0 79 0 19 0 19" Origin="0 0 0" Spacing="1 1 1">
  <Piece Extent="0 79 0 19 0 19">
    <PointData Scalars="density">
       <DataArray type="Float32" Name="reddensity" NumberOfComponents="1" format="ascii">
      0   0   0   0   0   
      0   0   0   0   0   
      0   0   0   0   0   
      0   0   0   0   0   
      0   0   0   0   0   
      0   0   0   0   0   
      0   0   0   0   0   
      0   0   0   0   0   
      0   0   0   0   0   
      0   0   0   0   0   
      0   0   0   0   0   
      0   0   0   0   0   
      0   0   0   0   0   
      0   0   0   0   0   
      0   0   0   0   0   
      0   0   0   0   0   
      0   0   0   0   0   
      0   0   0   0   0   
      0   0   0   0   0   
      0   0   0   0   0   
      0   0   0   0   0   
      0   0   0   0   0   
      0   0   0   0   0   
      0   0   0   0   0   
      0   0   0   0   0   
      0   0   0   0   0   
      0   0   0   0   0   
      0   0   0   0   0   
      0   0   0   0   0   
      0   0   0   0   0   
      0   0   0   0   0   
      0   0   0   0   0   
      0   0   0   0   0   
      0   0   0   0   0   
      0   0   0   0   0   
      0   0   0   0   0   
      0   0   0   0   0   
      0   0   0   0   0   
      0   0   0   0   0   
      0   0   0   0   0   
      0   0   0   0   0   
      0   0   0   0   0   
      0   0   0   0   0   
      0   0   0   0   0   
      0   0   0   0   0   
      0   0   0   0   0   
      0   0   0   0   0   
      0   0   0   0   0   
      0   0   0   0   0   
      0   0   0   0   0   
      0   0   0   0   0   
      0   0   0   0   0   
      0   0   0   0   0   
      0   0   0   0   0   
      0   0   0   0   0   
      0   0   0   0   0   
      0   0   0   0   0   
      0   0   0   0   0   
      0   0   0   0   0   
      0   0   0   0   0   
      0   0   0   0   0   
      0   0   0   0   0   
      0   0   0   0   0   
      0   0   0   0   0   
      0   0   0   0   0   
      0   0   0   0   0   
      0   0   0   0   0   
      0   0   0   0   0   
      0   0   0   0   0   
      0   0   0   0   0   
      0   0   0   0   0   
      0   0   0   0   0   
      0   0   0   0   0   
      0   0   0   0   0   
      0   0   0   0   0   
      0   0   0   0   0   
      0   0   0   0   0   
      0   0   0   0   0   
      0   0   0   0   0   
      0   0   0   0   0   
      0   0   0   0   0   
      0   0   0   0   0   
      0   0   0   0   0   
      0   0   0   0   0   
      0   0   0   0   0   
      0   0   0   0   0   
      0   0   0   0   0   
      0   0   0   0   0   
      0   0   0   0   0   
      0   0   0   0   0   
      0   0   0   0   0   
      0   0   0   0   0   
      0   0   0   0   0   
      0   0   0   0   0   
      0   0   0   0   0   
      0   0   0   0   0   
      0   0   0   0   0   
      0   0   0   0   0   
      0   0   0   0   0   
      0   0   0   0   0   
      0   0   0   0   0   
      0   0   0   0   0   
      0   0   0   0   0   
      0   0   0   0   0   
      0   0   0   0   0   
      0   0   0   0   0   
      0   0   0   0   0   
      0   0   0   0   0   
      0   0   0   0   0   
      0   0   0   0   0   
      0   0   0   0   0   
      0   0   0   0   0   
      0   0   0   0   0   
      0   0   0   0   0   
      0   0   0   0   0   
      0   0   0   0   0   
      0   0   0   0   0   
      0   0   0   0   0   
      0   0   0   0   0   
      0   0   0   0   0   
      0   0   0   0   0   
      0   0   0   0   0   
      0   0   0   0   0   
      0   0   0   0   0   
      0   0   0   0   0   
      0   0   0   0   0   
      0   0   0   0   0   
      0   0   0   0   0   
      0   0   0   0   0   
      0   0   0   0   0   
      0   0   0   0   0   
      0   0   0   0   0   
      0   0   0   0   0   
      0   0   0   0   0   
      0   0   0   0   0   
      0   0   0   0   0   
      0   0   0   0   0   
      0   0   0   0   0   
      0   0   0   0   0   
      0   0   0   0   0   
      0   0   0   0   0   
      0   0   0   0   0   
      0   0   0   0   0   
      0   0   0   0   0   
      0   0   0   0   0   
      0   0   0   0   0   
      0   0   0   0   0   
      0   0   0   0   0   
      0   0   0   0   0   
      0   0   0   0   0   
      0   0   0   0   0   
      0   0   0   0   0   
      0   0   0   0   0   
      0   0   0   0   0   
      0   0   0   0   0   
      0   0   0   0   0   
      0   0   0   0   0   
      0   0   0   0   0   
      0   0   0   0   0   
      0   0   0   0   0   
      0   0   0   0   0   
      0   0   0   0   0   
      0   0   0   0   0   
      0   0   0   0   0   
      0   0   0   0   0   
      0   0   0   0   0   
      0   0   0   0   0   
      0   0   0   0   0   
      0   0   0   0   0   
      0   0   0   0   0   
      0   0   0   0   0   
      0   0   0   0   0   
      0   0   0   0   0   
      0   0   0   0   0   
      0   0   0   0   0   
      0   0   0   0   0   
      0   0   0   0   0   
      0   0   0   0   0   
      0   0   0   0   0   
      0   0   0   0   0   
      0   0   0   0   0   
      0   0   0   0   0   
      0   0   0   0   0   
      0   0   0   0   0   
      0   0   0   0   0   
      0   0   0   0   0   
      0   0   0   0   0   
      0   0   0   0   0   
      0   0   0   0   0   
      0   0   0   0   0   
      0   0   0   0   0   
      0   0   0   0   0   
      0   0   0   0   0   
      0   0   0   0   0   
      0   0   0   0   0   
      0   0   0   0   0   
      0   0   0   0   0   
      0   0   0   0   0   
      0   0   0   0   0   
      0   0   0   0   0   
      0   0   0   0   0   
      0   0   0   0   0   
      0   0   0   0   0   
      0   0   0   0   0   
      0   0   0   0   0   
      0   0   0   0   0   
      0   0   0   0   0   
      0   0   0   0   0   
      0   0   0   0   0   
      0   0   0   0   0   
      0   0   0   0   0   
      0   0   0   0   0   
      0   0   0   0   0   
      0   0   0   0   0   
      0   0   0   0   0   
      0   0   0   0   0   
      0   0   0   0   0   
      0   0   0   0   0   
      0   0   0   0   0   
      0   0   0   0   0   
      0   0   0   0   0   
      0   0   0   0   0   
      0   0   0   0   0   
      0   0   0   0   0   
      0   0   0   0   0   
      0   0   0   0   0   
      0   0   0   0   0   
      0   0   0   0   0   
      0   0   0   0   0   
      0   0   0   0   0   
      0   0   0   0   0   
      0   0   0   0   0   
      0   0   0   0   0   
      0   0   0   0   0   
      0   0   0   0   0   
      0   0   0   0   0   
      0   0   0   0   0   
      0   0   0   0   0   
      0   0   0   0   0   
      0   0   0   0   0   
      0   0   0   0   0   
      0   0   0   0   0   
      0   0   0   0   0   
      0   0   0   0   0   
      0   0   0   0   0   
      0   0   0   0   0   
      0   0   0   0   0   
      0   0   0   0   0   
      0   0   0   0   0   
      0   0   0   0   0   
      0   0   0   0   0   
      0   0   0   0   0   
      0   0   0   0   0   
      0   0   0   0   0   
      0   0   0   0   0   
      0   0   0   0   0   
      0   0   0   0   0   
      0   0   0   0   0   
      0   0   0   0   0   
      0   0   0   0   0   
      0   0   0   0   0   
      0   0   0   0   0   
      0   0   0   0   0   
      0   0   0   0   0   
      0   0   0   0   0   
      0   0   0   0   0   
      0   0   0   0   0   
      0   0   0   0   0   
      0   0   0   0   0   
      0   0   0   0   0   
      0   0   0   0   0   
      0   0   0   0   0   
      0   0   0   0   0   
      0   0   0   0   0   
      0   0   0   0   0   
      0   0   0   0   0   
      0   0   0   0   0   
      0   0   0   0   0   
      0   0   0   0   0   
      0   0   0   0   0   
      0   0   0   0   0   
      0   0   0   0   0   
      0   0   0   0   0   
      0   0   0   0   0   
      0   0   0   0   0   
      0   0   0   0   0   
      0   0   0   0   0   
      0   0   0   0   0   
      0   0   0   0   0   
      0   0   0   0   0   
      0   0   0   0   0   
      0   0   0   0   0   
      0   0   0   0   0   
      0   0   0   0   0   
      0   0   0   0   0   
      0   0   0   0   0   
      0   0   0   0   0   
      0   0   0   0   0   
      0   0   0   0   0   
      0   0   0   0   0   
      0   0   0   0   0   
      0   0   0   0   0   
      0   0   0   0   0   
      0   0   0   0   0   
      0   0   0   0   0   
      0   0   0   0   0   
      0   0   0   0   0   
      0   0   0   0   0   
      0   0   0   0   0   
      0   0   0   0   0   
      0   0   0   0   0   
      0   0   0   0   0   
      0   0   0   0   0   
      0   0   0   0   0   
      0   0   0   0   0   
      0   0   0   0   0   
      0   0   0   0   0   
      0   0   0   0   0   
      0   0   0   0   0   
      0   0   0   0   0   
      0   0   0   0   0   
      0   0   0   0   0   
      0   0   0   0   0   
      0   0   0   0   0   
      0   0   0   0   0   
      0   0   0   0   0   
      0   0   0   0   0   
      0   0   0   0   0   
      0   0   0   0   0   
      0   0   0   0   0   
      0   0   0   0   0   
      0   0   0   0   0   
      0   0   0   0   0   
      0   0   0   0   0   
      0   0   0   0   0   
      0   0   0   0   0   
      0.0829886328399   0.0829949324044   0.0830138278705   0.0830453092374   0.083089358769   
      0.0831459493691   0.0832150422595   0.083296583919   0.083390502231   0.0834967017849   
      0.0836150582738   0.0837454119415   0.0838875600446   0.0840412483197   0.0842061614843   
      0.0843819128448   0.0845680331517   0.0847639589126   0.0849690204628   0.0851824301883   
      0.0854032713922   0.0856304883943   0.0858628785345   0.0860990868162   0.086337603953   
      0.0865767685753   0.0868147742888   0.0870496821604   0.0872794390299   0.087501901815   
      0.0877148676955   0.0879161097486   0.0881034172796   0.088274639767   0.0884277330475   
      0.0885608061323   0.0886721668772   0.0887603646677   0.0888242283084   0.0888628974531   
      0.0888758461553   0.0888628974531   0.0888242283084   0.0887603646677   0.0886721668772   
      0.0885608061323   0.0884277330475   0.088274639767   0.0881034172796   0.0879161097486   
      0.0877148676955   0.087501901815   0.0872794390299   0.0870496821604   0.0868147742888   
      0.0865767685753   0.086337603953   0.0860990868162   0.0858628785345   0.0856304883943   
      0.0854032713922   0.0851824301883   0.0849690204628   0.0847639589126   0.0845680331517   
      0.0843819128448   0.0842061614843   0.0840412483197   0.0838875600446   0.0837454119415   
      0.0836150582738   0.0834967017849   0.083390502231   0.083296583919   0.0832150422595   
      0.0831459493691   0.083089358769   0.0830453092374   0.0830138278705   0.0829949324044   
      0.0912539124461   0.0912629037546   0.0912898744982   0.0913348146514   0.091397705894   
      0.0914785191606   0.0915772111406   0.0916937196679   0.0918279579219   0.0919798073603   
      0.0921491093033   0.0923356550989   0.0925391748244   0.092759324515   0.0929956719654   
      0.0932476812239   0.0935146959906   0.0937959222429   0.0940904105392   0.0943970385918   
      0.094714494844   0.0950412639223   0.0953756149566   0.0957155938457   0.0960590205829   
      0.096403492733   0.096746396052   0.0970849230572   0.0974161000904   0.0977368230718   
      0.0980439017297   0.0983341116381   0.0986042529197   0.0988512140188   0.0990720385379   
      0.0992639928103   0.0994246316634   0.0995518597536   0.0996439859101   0.0996997681482   
      0.0997184473573   0.0996997681482   0.0996439859101   0.0995518597536   0.0994246316634   
      0.0992639928103   0.0990720385379   0.0988512140188   0.0986042529197   0.0983341116381   
      0.0980439017297   0.0977368230718   0.0974161000904   0.0970849230572   0.096746396052   
      0.096403492733   0.0960590205829   0.0957155938457   0.0953756149566   0.0950412639223   
      0.094714494844   0.0943970385918   0.0940904105392   0.0937959222429   0.0935146959906   
      0.0932476812239   0.0929956719654   0.092759324515   0.0925391748244   0.0923356550989   
      0.0921491093033   0.0919798073603   0.0918279579219   0.0916937196679   0.0915772111406   
      0.0914785191606   0.091397705894   0.0913348146514   0.0912898744982   0.0912629037546   
      0.105311735099   0.105326356535   0.105370217911   0.105443309599   0.105545612749   
      0.105677095029   0.105837704552   0.106027361867   0.106245949912   0.106493301779   
      0.106769186177   0.107073290468   0.107405201234   0.107764382368   0.108150150794   
      0.108561650058   0.108997822167   0.10945737828   0.109938769041   0.110440155599   
      0.110959382575   0.11149395448   0.112041017236   0.112597346604   0.113159345319   
      0.113723050673   0.114284154077   0.114838033775   0.115379801431   0.1159043627   
      0.116406491227   0.116880914778   0.117322411489   0.117725913521   0.118086614843   
      0.118400079415   0.118662345792   0.11887002413   0.119020381705   0.119111413471   
      0.119141894695   0.119111413471   0.119020381705   0.11887002413   0.118662345792   
      0.118400079415   0.118086614843   0.117725913521   0.117322411489   0.116880914778   
      0.116406491227   0.1159043627   0.115379801431   0.114838033775   0.114284154077   
      0.113723050673   0.113159345319   0.112597346604   0.112041017236   0.11149395448   
      0.110959382575   0.110440155599   0.109938769041   0.10945737828   0.108997822167   
      0.108561650058   0.108150150794   0.107764382368   0.107405201234   0.107073290468   
      0.106769186177   0.106493301779   0.106245949912   0.106027361867   0.105837704552   
      0.105677095029   0.105545612749   0.105443309599   0.105370217911   0.105326356535   
      0.11682852988   0.116849242557   0.11691137754   0.117014924427   0.117159861657   
      0.117346150096   0.117573723891   0.117842478453   0.118152255385   0.118502824195   
      0.118893860608   0.119324921377   0.11979541553   0.120304572118   0.120851404693   
      0.121434672929   0.122052842055   0.122704041052   0.123386020886   0.124096114367   
      0.12483119955   0.125587668872   0.126361406404   0.127147775729   0.127941620854   
      0.12873728241   0.129528630956   0.130309118631   0.131071849694   0.131809669577   
      0.132515271182   0.133181316174   0.133800568159   0.134366033834   0.13487110762   
      0.135309714921   0.135676448978   0.135966696435   0.136176747049   0.136303883505   
      0.136346448055   0.136303883505   0.136176747049   0.135966696435   0.135676448978   
      0.135309714921   0.13487110762   0.134366033834   0.133800568159   0.133181316174   
      0.132515271182   0.131809669577   0.131071849694   0.130309118631   0.129528630956   
      0.12873728241   0.127941620854   0.127147775729   0.126361406404   0.125587668872   
      0.12483119955   0.124096114367   0.123386020886   0.122704041052   0.122052842055   
      0.121434672929   0.120851404693   0.120304572118   0.11979541553   0.119324921377   
      0.118893860608   0.118502824195   0.118152255385   0.117842478453   0.117573723891   
      0.117346150096   0.117159861657   0.117014924427   0.11691137754   0.116849242557   
      0.127585542787   0.127612385254   0.127692908303   0.127827097144   0.128014921327   
      0.128256325922   0.128551218987   0.128899455115   0.129300814865   0.129754979872   
      0.130261503464   0.13081977667   0.131428989651   0.132088088727   0.132795729409   
      0.133550226148   0.134349499827   0.135191024419   0.136071774667   0.136988176998   
      0.137936066319   0.13891065156   0.139906493068   0.140917494877   0.141936914724   
      0.142957394209   0.143971010848   0.144969352896   0.145943616784   0.146884725906   
      0.147783468359   0.148630650196   0.149417259874   0.150134638888   0.150774653222   
      0.151329860092   0.151793664629   0.152160461508   0.152425757109   0.152586268466   
      0.152639996084   0.152586268466   0.152425757109   0.152160461508   0.151793664629   
      0.151329860092   0.150774653222   0.150134638888   0.149417259874   0.148630650196   
      0.147783468359   0.146884725906   0.145943616784   0.144969352896   0.143971010848   
      0.142957394209   0.141936914724   0.140917494877   0.139906493068   0.13891065156   
      0.137936066319   0.136988176998   0.136071774667   0.135191024419   0.134349499827   
      0.133550226148   0.132795729409   0.132088088727   0.131428989651   0.13081977667   
      0.130261503464   0.129754979872   0.129300814865   0.128899455115   0.128551218987   
      0.128256325922   0.128014921327   0.127827097144   0.127692908303   0.127612385254   
      0.136881429359   0.136913638323   0.137010257973   0.137171264376   0.137396610297   
      0.137686214043   0.138039943624   0.138457596028   0.138938871372   0.139483341748   
      0.1400904146   0.140759290603   0.141488916162   0.142277930903   0.143124610822   
      0.144026808132   0.144981889273   0.145986673051   0.147037371306   0.148129535014   
      0.149258009059   0.150416899171   0.151599554587   0.152798569779   0.154005808182   
      0.1552124501   0.156409066034   0.157585715482   0.158732070013   0.159837558123   
      0.160891528195   0.16188342491   0.162802973761   0.163640367945   0.16438645187   
      0.165032895809   0.165572356722   0.165998620984   0.166306725504   0.166493054507   
      0.166555409991   0.166493054507   0.166306725504   0.165998620984   0.165572356722   
      0.165032895809   0.16438645187   0.163640367945   0.162802973761   0.16188342491   
      0.160891528195   0.159837558123   0.158732070013   0.157585715482   0.156409066034   
      0.1552124501   0.154005808182   0.152798569779   0.151599554587   0.150416899171   
      0.149258009059   0.148129535014   0.147037371306   0.145986673051   0.144981889273   
      0.144026808132   0.143124610822   0.142277930903   0.141488916162   0.140759290603   
      0.1400904146   0.139483341748   0.138938871372   0.138457596028   0.138039943624   
      0.137686214043   0.137396610297   0.137171264376   0.137010257973   0.136913638323   
      0.14419641402   0.144232794519   0.144341924916   0.144523769315   0.144778259197   
      0.145105280253   0.145504653707   0.145976111934   0.14651926815   0.147133579999   
      0.147818306943   0.148572461514   0.149394754692   0.150283535978   0.151236729114   
      0.15225176483   0.153325512523   0.154454213292   0.155633417284   0.156857928761   
      0.158121762638   0.159418116375   0.160739361033   0.162077054876   0.163421982243   
      0.16476421937   0.16609322765   0.167397973389   0.168667071696   0.169888950795   
      0.171052031943   0.172144919301   0.173156593741   0.174076604528   0.174895253232   
      0.175603764856   0.176194442066   0.176660799339   0.176997674748   0.177201317912   
      0.177269453224   0.177201317912   0.176997674748   0.176660799339   0.176194442066   
      0.175603764856   0.174895253232   0.174076604528   0.173156593741   0.172144919301   
      0.171052031943   0.169888950795   0.168667071696   0.167397973389   0.16609322765   
      0.16476421937   0.163421982243   0.162077054876   0.160739361033   0.159418116375   
      0.158121762638   0.156857928761   0.155633417284   0.154454213292   0.153325512523   
      0.15225176483   0.151236729114   0.150283535978   0.149394754692   0.148572461514   
      0.147818306943   0.147133579999   0.14651926815   0.145976111934   0.145504653707   
      0.145105280253   0.144778259197   0.144523769315   0.144341924916   0.144232794519   
      0.149181923342   0.14922109559   0.149338597603   0.1495343823   0.149808361536   
      0.150160391467   0.15059025181   0.151097618819   0.151682031771   0.152342852817   
      0.153079220168   0.153889994763   0.154773700812   0.155728460976   0.156751927348   
      0.157841209912   0.158992804721   0.160202524577   0.161465435552   0.162775803134   
      0.164127052054   0.165511743891   0.166921576342   0.168347407431   0.169779307055   
      0.171206637041   0.172618159473   0.174002171466   0.175346663105   0.176639493891   
      0.177868582042   0.179022100398   0.180088672529   0.181057562981   0.181918856274   
      0.182663620267   0.183284050605   0.183773594058   0.184127049576   0.184340646596   
      0.184412100656   0.184340646596   0.184127049576   0.183773594058   0.183284050605   
      0.182663620267   0.181918856274   0.181057562981   0.180088672529   0.179022100398   
      0.177868582042   0.176639493891   0.175346663105   0.174002171466   0.172618159473   
      0.171206637041   0.169779307055   0.168347407431   0.166921576342   0.165511743891   
      0.164127052054   0.162775803134   0.161465435552   0.160202524577   0.158992804721   
      0.157841209912   0.156751927348   0.155728460976   0.154773700812   0.153889994763   
      0.153079220168   0.152342852817   0.151682031771   0.151097618819   0.15059025181   
      0.150160391467   0.149808361536   0.1495343823   0.149338597603   0.14922109559   
      0.15169407858   0.151734637829   0.151856298655   0.152059007257   0.152342663773   
      0.152707106867   0.153152091916   0.153677262603   0.154282115734   0.154965959167   
      0.155727862845   0.156566603143   0.157480601001   0.158467854712   0.159525868652   
      0.160651579802   0.161841284461   0.163090568164   0.164394242307   0.165746291476   
      0.167139835651   0.168567111503   0.170019476628   0.171487439924   0.172960720272   
      0.174428334372   0.175878713058   0.17729984379   0.178679435499   0.180005100652   
      0.181264548463   0.182445782704   0.183537297592   0.18452826573   0.185408712956   
      0.186169676083   0.186803340765   0.187303157879   0.187663937842   0.18788192299   
      0.187954838571   0.18788192299   0.187663937842   0.187303157879   0.186803340765   
      0.186169676083   0.185408712956   0.18452826573   0.183537297592   0.182445782704   
      0.181264548463   0.180005100652   0.178679435499   0.17729984379   0.175878713058   
      0.174428334372   0.172960720272   0.171487439924   0.170019476628   0.168567111503   
      0.167139835651   0.165746291476   0.164394242307   0.163090568164   0.161841284461   
      0.160651579802   0.159525868652   0.158467854712   0.157480601001   0.156566603143   
      0.155727862845   0.154965959167   0.154282115734   0.153677262603   0.153152091916   
      0.152707106867   0.152342663773   0.152059007257   0.151856298655   0.151734637829   
      0.15169407858   0.151734637829   0.151856298655   0.152059007257   0.152342663773   
      0.152707106867   0.153152091916   0.153677262603   0.154282115734   0.154965959167   
      0.155727862845   0.156566603143   0.157480601001   0.158467854712   0.159525868652   
      0.160651579802   0.161841284461   0.163090568164   0.164394242307   0.165746291476   
      0.167139835651   0.168567111503   0.170019476628   0.171487439924   0.172960720272   
      0.174428334372   0.175878713058   0.17729984379   0.178679435499   0.180005100652   
      0.181264548463   0.182445782704   0.183537297592   0.18452826573   0.185408712956   
      0.186169676083   0.186803340765   0.187303157879   0.187663937842   0.18788192299   
      0.187954838571   0.18788192299   0.187663937842   0.187303157879   0.186803340765   
      0.186169676083   0.185408712956   0.18452826573   0.183537297592   0.182445782704   
      0.181264548463   0.180005100652   0.178679435499   0.17729984379   0.175878713058   
      0.174428334372   0.172960720272   0.171487439924   0.170019476628   0.168567111503   
      0.167139835651   0.165746291476   0.164394242307   0.163090568164   0.161841284461   
      0.160651579802   0.159525868652   0.158467854712   0.157480601001   0.156566603143   
      0.155727862845   0.154965959167   0.154282115734   0.153677262603   0.153152091916   
      0.152707106867   0.152342663773   0.152059007257   0.151856298655   0.151734637829   
      0.149181923342   0.14922109559   0.149338597603   0.1495343823   0.149808361536   
      0.150160391467   0.15059025181   0.151097618819   0.151682031771   0.152342852817   
      0.153079220168   0.153889994763   0.154773700812   0.155728460976   0.156751927348   
      0.157841209912   0.158992804721   0.160202524577   0.161465435552   0.162775803134   
      0.164127052054   0.165511743891   0.166921576342   0.168347407431   0.169779307055   
      0.171206637041   0.172618159473   0.174002171466   0.175346663105   0.176639493891   
      0.177868582042   0.179022100398   0.180088672529   0.181057562981   0.181918856274   
      0.182663620267   0.183284050605   0.183773594058   0.184127049576   0.184340646596   
      0.184412100656   0.184340646596   0.184127049576   0.183773594058   0.183284050605   
      0.182663620267   0.181918856274   0.181057562981   0.180088672529   0.179022100398   
      0.177868582042   0.176639493891   0.175346663105   0.174002171466   0.172618159473   
      0.171206637041   0.169779307055   0.168347407431   0.166921576342   0.165511743891   
      0.164127052054   0.162775803134   0.161465435552   0.160202524577   0.158992804721   
      0.157841209912   0.156751927348   0.155728460976   0.154773700812   0.153889994763   
      0.153079220168   0.152342852817   0.151682031771   0.151097618819   0.15059025181   
      0.150160391467   0.149808361536   0.1495343823   0.149338597603   0.14922109559   
      0.14419641402   0.144232794519   0.144341924916   0.144523769315   0.144778259197   
      0.145105280253   0.145504653707   0.145976111934   0.14651926815   0.147133579999   
      0.147818306943   0.148572461514   0.149394754692   0.150283535978   0.151236729114   
      0.15225176483   0.153325512523   0.154454213292   0.155633417284   0.156857928761   
      0.158121762638   0.159418116375   0.160739361033   0.162077054876   0.163421982243   
      0.16476421937   0.16609322765   0.167397973389   0.168667071696   0.169888950795   
      0.171052031943   0.172144919301   0.173156593741   0.174076604528   0.174895253232   
      0.175603764856   0.176194442066   0.176660799339   0.176997674748   0.177201317912   
      0.177269453224   0.177201317912   0.176997674748   0.176660799339   0.176194442066   
      0.175603764856   0.174895253232   0.174076604528   0.173156593741   0.172144919301   
      0.171052031943   0.169888950795   0.168667071696   0.167397973389   0.16609322765   
      0.16476421937   0.163421982243   0.162077054876   0.160739361033   0.159418116375   
      0.158121762638   0.156857928761   0.155633417284   0.154454213292   0.153325512523   
      0.15225176483   0.151236729114   0.150283535978   0.149394754692   0.148572461514   
      0.147818306943   0.147133579999   0.14651926815   0.145976111934   0.145504653707   
      0.145105280253   0.144778259197   0.144523769315   0.144341924916   0.144232794519   
      0.136881429359   0.136913638323   0.137010257973   0.137171264376   0.137396610297   
      0.137686214043   0.138039943624   0.138457596028   0.138938871372   0.139483341748   
      0.1400904146   0.140759290603   0.141488916162   0.142277930903   0.143124610822   
      0.144026808132   0.144981889273   0.145986673051   0.147037371306   0.148129535014   
      0.149258009059   0.150416899171   0.151599554587   0.152798569779   0.154005808182   
      0.1552124501   0.156409066034   0.157585715482   0.158732070013   0.159837558123   
      0.160891528195   0.16188342491   0.162802973761   0.163640367945   0.16438645187   
      0.165032895809   0.165572356722   0.165998620984   0.166306725504   0.166493054507   
      0.166555409991   0.166493054507   0.166306725504   0.165998620984   0.165572356722   
      0.165032895809   0.16438645187   0.163640367945   0.162802973761   0.16188342491   
      0.160891528195   0.159837558123   0.158732070013   0.157585715482   0.156409066034   
      0.1552124501   0.154005808182   0.152798569779   0.151599554587   0.150416899171   
      0.149258009059   0.148129535014   0.147037371306   0.145986673051   0.144981889273   
      0.144026808132   0.143124610822   0.142277930903   0.141488916162   0.140759290603   
      0.1400904146   0.139483341748   0.138938871372   0.138457596028   0.138039943624   
      0.137686214043   0.137396610297   0.137171264376   0.137010257973   0.136913638323   
      0.127585542787   0.127612385254   0.127692908303   0.127827097144   0.128014921327   
      0.128256325922   0.128551218987   0.128899455115   0.129300814865   0.129754979872   
      0.130261503464   0.13081977667   0.131428989651   0.132088088727   0.132795729409   
      0.133550226148   0.134349499827   0.135191024419   0.136071774667   0.136988176998   
      0.137936066319   0.13891065156   0.139906493068   0.140917494877   0.141936914724   
      0.142957394209   0.143971010848   0.144969352896   0.145943616784   0.146884725906   
      0.147783468359   0.148630650196   0.149417259874   0.150134638888   0.150774653222   
      0.151329860092   0.151793664629   0.152160461508   0.152425757109   0.152586268466   
      0.152639996084   0.152586268466   0.152425757109   0.152160461508   0.151793664629   
      0.151329860092   0.150774653222   0.150134638888   0.149417259874   0.148630650196   
      0.147783468359   0.146884725906   0.145943616784   0.144969352896   0.143971010848   
      0.142957394209   0.141936914724   0.140917494877   0.139906493068   0.13891065156   
      0.137936066319   0.136988176998   0.136071774667   0.135191024419   0.134349499827   
      0.133550226148   0.132795729409   0.132088088727   0.131428989651   0.13081977667   
      0.130261503464   0.129754979872   0.129300814865   0.128899455115   0.128551218987   