<?xml version="1.0"?>
<VTKFile type="ImageData" version="0.1" byte_order="LittleEndian">
  <ImageData WholeExtent="0 79 0 19 0 19" Origin="0 0 0" Spacing="1 1 1">
  <Piece Extent="0 79 0 19 0 19">
    <PointData Scalars="density">
       <DataArray type="Float32" Name="reddensity" NumberOfComponents="1" format="ascii">
      0   0   0   0   0   
      0   0   0   0   0   
      0   0   0   0   0   
      0   0   0   0   0   
      0   0   0   0   0   
      0   0   0   0   0   
      0   0   0   0   0   
      0   0   0   0   0   
      0   0   0   0   0   
      0   0   0   0   0   
      0   0   0   0   0   
      0   0   0   0   0   
      0   0   0   0   0   
      0   0   0   0   0   
      0   0   0   0   0   
      0   0   0   0   0   
      0   0   0   0   0   
      0   0   0   0   0   
      0   0   0   0   0   
      0   0   0   0   0   
      0   0   0   0   0   
      0   0   0   0   0   
      0   0   0   0   0   
      0   0   0   0   0   
      0   0   0   0   0   
      0   0   0   0   0   
      0   0   0   0   0   
      0   0   0   0   0   
      0   0   0   0   0   
      0   0   0   0   0   
      0   0   0   0   0   
      0   0   0   0   0   
      0   0   0   0   0   
      0   0   0   0   0   
      0   0   0   0   0   
      0   0   0   0   0   
      0   0   0   0   0   
      0   0   0   0   0   
      0   0   0   0   0   
      0   0   0   0   0   
      0   0   0   0   0   
      0   0   0   0   0   
      0   0   0   0   0   
      0   0   0   0   0   
      0   0   0   0   0   
      0   0   0   0   0   
      0   0   0   0   0   
      0   0   0   0   0   
      0   0   0   0   0   
      0   0   0   0   0   
      0   0   0   0   0   
      0   0   0   0   0   
      0   0   0   0   0   
      0   0   0   0   0   
      0   0   0   0   0   
      0   0   0   0   0   
      0   0   0   0   0   
      0   0   0   0   0   
      0   0   0   0   0   
      0   0   0   0   0   
      0   0   0   0   0   
      0   0   0   0   0   
      0   0   0   0   0   
      0   0   0   0   0   
      0   0   0   0   0   
      0   0   0   0   0   
      0   0   0   0   0   
      0   0   0   0   0   
      0   0   0   0   0   
      0   0   0   0   0   
      0   0   0   0   0   
      0   0   0   0   0   
      0   0   0   0   0   
      0   0   0   0   0   
      0   0   0   0   0   
      0   0   0   0   0   
      0   0   0   0   0   
      0   0   0   0   0   
      0   0   0   0   0   
      0   0   0   0   0   
      0   0   0   0   0   
      0   0   0   0   0   
      0   0   0   0   0   
      0   0   0   0   0   
      0   0   0   0   0   
      0   0   0   0   0   
      0   0   0   0   0   
      0   0   0   0   0   
      0   0   0   0   0   
      0   0   0   0   0   
      0   0   0   0   0   
      0   0   0   0   0   
      0   0   0   0   0   
      0   0   0   0   0   
      0   0   0   0   0   
      0   0   0   0   0   
      0   0   0   0   0   
      0   0   0   0   0   
      0   0   0   0   0   
      0   0   0   0   0   
      0   0   0   0   0   
      0   0   0   0   0   
      0   0   0   0   0   
      0   0   0   0   0   
      0   0   0   0   0   
      0   0   0   0   0   
      0   0   0   0   0   
      0   0   0   0   0   
      0   0   0   0   0   
      0   0   0   0   0   
      0   0   0   0   0   
      0   0   0   0   0   
      0   0   0   0   0   
      0   0   0   0   0   
      0   0   0   0   0   
      0   0   0   0   0   
      0   0   0   0   0   
      0   0   0   0   0   
      0   0   0   0   0   
      0   0   0   0   0   
      0   0   0   0   0   
      0   0   0   0   0   
      0   0   0   0   0   
      0   0   0   0   0   
      0   0   0   0   0   
      0   0   0   0   0   
      0   0   0   0   0   
      0   0   0   0   0   
      0   0   0   0   0   
      0   0   0   0   0   
      0   0   0   0   0   
      0   0   0   0   0   
      0   0   0   0   0   
      0   0   0   0   0   
      0   0   0   0   0   
      0   0   0   0   0   
      0   0   0   0   0   
      0   0   0   0   0   
      0   0   0   0   0   
      0   0   0   0   0   
      0   0   0   0   0   
      0   0   0   0   0   
      0   0   0   0   0   
      0   0   0   0   0   
      0   0   0   0   0   
      0   0   0   0   0   
      0   0   0   0   0   
      0   0   0   0   0   
      0   0   0   0   0   
      0   0   0   0   0   
      0   0   0   0   0   
      0   0   0   0   0   
      0   0   0   0   0   
      0   0   0   0   0   
      0   0   0   0   0   
      0   0   0   0   0   
      0   0   0   0   0   
      0   0   0   0   0   
      0   0   0   0   0   
      0   0   0   0   0   
      0   0   0   0   0   
      0   0   0   0   0   
      0   0   0   0   0   
      0   0   0   0   0   
      0   0   0   0   0   
      0   0   0   0   0   
      0   0   0   0   0   
      0   0   0   0   0   
      0   0   0   0   0   
      0   0   0   0   0   
      0   0   0   0   0   
      0   0   0   0   0   
      0   0   0   0   0   
      0   0   0   0   0   
      0   0   0   0   0   
      0   0   0   0   0   
      0   0   0   0   0   
      0   0   0   0   0   
      0   0   0   0   0   
      0   0   0   0   0   
      0   0   0   0   0   
      0   0   0   0   0   
      0   0   0   0   0   
      0   0   0   0   0   
      0   0   0   0   0   
      0   0   0   0   0   
      0   0   0   0   0   
      0   0   0   0   0   
      0   0   0   0   0   
      0   0   0   0   0   
      0   0   0   0   0   
      0   0   0   0   0   
      0   0   0   0   0   
      0   0   0   0   0   
      0   0   0   0   0   
      0   0   0   0   0   
      0   0   0   0   0   
      0   0   0   0   0   
      0   0   0   0   0   
      0   0   0   0   0   
      0   0   0   0   0   
      0   0   0   0   0   
      0   0   0   0   0   
      0   0   0   0   0   
      0   0   0   0   0   
      0   0   0   0   0   
      0   0   0   0   0   
      0   0   0   0   0   
      0   0   0   0   0   
      0   0   0   0   0   
      0   0   0   0   0   
      0   0   0   0   0   
      0   0   0   0   0   
      0   0   0   0   0   
      0   0   0   0   0   
      0   0   0   0   0   
      0   0   0   0   0   
      0   0   0   0   0   
      0   0   0   0   0   
      0   0   0   0   0   
      0   0   0   0   0   
      0   0   0   0   0   
      0   0   0   0   0   
      0   0   0   0   0   
      0   0   0   0   0   
      0   0   0   0   0   
      0   0   0   0   0   
      0   0   0   0   0   
      0   0   0   0   0   
      0   0   0   0   0   
      0   0   0   0   0   
      0   0   0   0   0   
      0   0   0   0   0   
      0   0   0   0   0   
      0   0   0   0   0   
      0   0   0   0   0   
      0   0   0   0   0   
      0   0   0   0   0   
      0   0   0   0   0   
      0   0   0   0   0   
      0   0   0   0   0   
      0   0   0   0   0   
      0   0   0   0   0   
      0   0   0   0   0   
      0   0   0   0   0   
      0   0   0   0   0   
      0   0   0   0   0   
      0   0   0   0   0   
      0   0   0   0   0   
      0   0   0   0   0   
      0   0   0   0   0   
      0   0   0   0   0   
      0   0   0   0   0   
      0   0   0   0   0   
      0   0   0   0   0   
      0   0   0   0   0   
      0   0   0   0   0   
      0   0   0   0   0   
      0   0   0   0   0   
      0   0   0   0   0   
      0   0   0   0   0   
      0   0   0   0   0   
      0   0   0   0   0   
      0   0   0   0   0   
      0   0   0   0   0   
      0   0   0   0   0   
      0   0   0   0   0   
      0   0   0   0   0   
      0   0   0   0   0   
      0   0   0   0   0   
      0   0   0   0   0   
      0   0   0   0   0   
      0   0   0   0   0   
      0   0   0   0   0   
      0   0   0   0   0   
      0   0   0   0   0   
      0   0   0   0   0   
      0   0   0   0   0   
      0   0   0   0   0   
      0   0   0   0   0   
      0   0   0   0   0   
      0   0   0   0   0   
      0   0   0   0   0   
      0   0   0   0   0   
      0   0   0   0   0   
      0   0   0   0   0   
      0   0   0   0   0   
      0   0   0   0   0   
      0   0   0   0   0   
      0   0   0   0   0   
      0   0   0   0   0   
      0   0   0   0   0   
      0   0   0   0   0   
      0   0   0   0   0   
      0   0   0   0   0   
      0   0   0   0   0   
      0   0   0   0   0   
      0   0   0   0   0   
      0   0   0   0   0   
      0   0   0   0   0   
      0   0   0   0   0   
      0   0   0   0   0   
      0   0   0   0   0   
      0   0   0   0   0   
      0   0   0   0   0   
      0   0   0   0   0   
      0   0   0   0   0   
      0   0   0   0   0   
      0   0   0   0   0   
      0   0   0   0   0   
      0   0   0   0   0   
      0   0   0   0   0   
      0   0   0   0   0   
      0   0   0   0   0   
      0   0   0   0   0   
      0   0   0   0   0   
      0   0   0   0   0   
      0   0   0   0   0   
      0   0   0   0   0   
      0   0   0   0   0   
      0   0   0   0   0   
      0   0   0   0   0   
      0   0   0   0   0   
      0   0   0   0   0   
      0   0   0   0   0   
      0   0   0   0   0   
      0   0   0   0   0   
      0   0   0   0   0   
      0   0   0   0   0   
      0   0   0   0   0   
      0   0   0   0   0   
      0   0   0   0   0   
      0   0   0   0   0   
      0   0   0   0   0   
      0   0   0   0   0   
      0   0   0   0   0   
      0.0812614876683   0.0812710584779   0.0812997931287   0.0813477582008   0.0814150643488   
      0.0815018657327   0.0816083590157   0.081734781707   0.0818814095496   0.0820485525577   
      0.0822365492056   0.0824457581633   0.0826765468631   0.0829292760904   0.0832042797271   
      0.0835018387698   0.0838221488172   0.0841652804047   0.0845311318906   0.0849193750761   
      0.0853293943937   0.0857602212956   0.086210466387   0.0866782527992   0.0871611551952   
      0.087656149517   0.088159579006   0.0886671420244   0.0891739067086   0.0896743564375   
      0.0901624685387   0.0906318266599   0.0910757649501   0.0914875398208   0.0918605227895   
      0.0921884059783   0.0924654104099   0.0926864864645   0.0928474958121   0.0929453648242   
      0.0929782008612   0.0929453648242   0.0928474958121   0.0926864864645   0.0924654104099   
      0.0921884059783   0.0918605227895   0.0914875398208   0.0910757649501   0.0906318266599   
      0.0901624685387   0.0896743564375   0.0891739067086   0.0886671420244   0.088159579006   
      0.087656149517   0.0871611551952   0.0866782527992   0.086210466387   0.0857602212956   
      0.0853293943937   0.0849193750761   0.0845311318906   0.0841652804047   0.0838221488172   
      0.0835018387698   0.0832042797271   0.0829292760904   0.0826765468631   0.0824457581633   
      0.0822365492056   0.0820485525577   0.0818814095496   0.081734781707   0.0816083590157   
      0.0815018657327   0.0814150643488   0.0813477582008   0.0812997931287   0.0812710584779   
      0.0887618249693   0.0887753433706   0.0888159345651   0.0888837063784   0.0889788379905   
      0.0891015789878   0.0892522477243   0.0894312286547   0.0896389681865   0.0898759684567   
      0.0901427782885   0.0904399804245   0.0907681739765   0.0911279509003   0.0915198652179   
      0.0919443937113   0.0924018869333   0.0928925096746   0.093416170524   0.0939724409003   
      0.0945604649165   0.095178862642   0.0958256306862   0.0964980454273   0.0971925754939   
      0.0979048110969   0.0986294183081   0.0993601262239   0.100089754029   0.100810283246   
      0.101512977996   0.102188553078   0.102827386357   0.103419768574   0.103956180726   
      0.104427586663   0.104825726967   0.105143399449   0.105374711916   0.105515294043   
      0.105562457233   0.105515294043   0.105374711916   0.105143399449   0.104825726967   
      0.104427586663   0.103956180726   0.103419768574   0.102827386357   0.102188553078   
      0.101512977996   0.100810283246   0.100089754029   0.0993601262239   0.0986294183081   
      0.0979048110969   0.0971925754939   0.0964980454273   0.0958256306862   0.095178862642   
      0.0945604649165   0.0939724409003   0.093416170524   0.0928925096746   0.0924018869333   
      0.0919443937113   0.0915198652179   0.0911279509003   0.0907681739765   0.0904399804245   
      0.0901427782885   0.0898759684567   0.0896389681865   0.0894312286547   0.0892522477243   
      0.0891015789878   0.0889788379905   0.0888837063784   0.0888159345651   0.0887753433706   
      0.101215516553   0.101237261262   0.101302561195   0.101411613471   0.101564745553   
      0.101762413384   0.102005198196   0.102293801425   0.102629036906   0.103011819308   
      0.103443147505   0.10392408131   0.104455709754   0.105039108879   0.105675286904   
      0.106365114699   0.107109239733   0.107907982313   0.10876121383   0.109668218155   
      0.11062753909   0.111636818911   0.112692635392   0.113790346978   0.114923957742   
      0.116086015026   0.117267552993   0.118458094281   0.119645719665   0.120817212006   
      0.121958276081   0.123053830734   0.124088364454   0.125046340778   0.125912636112   
      0.126672990156   0.127314448072   0.127825773976   0.12819781694   0.128423813244   
      0.1284996118   0.128423813244   0.12819781694   0.127825773976   0.127314448072   
      0.126672990156   0.125912636112   0.125046340778   0.124088364454   0.123053830734   
      0.121958276081   0.120817212006   0.119645719665   0.118458094281   0.117267552993   
      0.116086015026   0.114923957742   0.113790346978   0.112692635392   0.111636818911   
      0.11062753909   0.109668218155   0.10876121383   0.107907982313   0.107109239733   
      0.106365114699   0.105675286904   0.105039108879   0.104455709754   0.10392408131   
      0.103443147505   0.103011819308   0.102629036906   0.102293801425   0.102005198196   
      0.101762413384   0.101564745553   0.101411613471   0.101302561195   0.101237261262   
      0.110974063019   0.111004680754   0.111096633072   0.111250216765   0.111465924533   
      0.111744441628   0.112086640261   0.112493570842   0.112966448792   0.113506635309   
      0.114115610087   0.114794933603   0.115546196269   0.116370951474   0.117270629494   
      0.118246429467   0.119299187216   0.120429217826   0.12163613359   0.12291864022   
      0.124274317171   0.125699391169   0.127188515442   0.128734570165   0.130328501804   
      0.131959219776   0.133613567748   0.135276383773   0.136930658327   0.138557792709   
      0.140137952828   0.141650506127   0.143074523139   0.144389320739   0.14557502191   
      0.146613106893   0.14748693253   0.148182200009   0.148687355218   0.148993910054   
      0.149096676723   0.148993910054   0.148687355218   0.148182200009   0.14748693253   
      0.146613106893   0.14557502191   0.144389320739   0.143074523139   0.141650506127   
      0.140137952828   0.138557792709   0.136930658327   0.135276383773   0.133613567748   
      0.131959219776   0.130328501804   0.128734570165   0.127188515442   0.125699391169   
      0.124274317171   0.12291864022   0.12163613359   0.120429217826   0.119299187216   
      0.118246429467   0.117270629494   0.116370951474   0.115546196269   0.114794933603   
      0.114115610087   0.113506635309   0.112966448792   0.112493570842   0.112086640261   
      0.111744441628   0.111465924533   0.111250216765   0.111096633072   0.111004680754   
      0.119942022601   0.119981597816   0.12010045588   0.120298993118   0.120577866809   
      0.120937989659   0.121380520775   0.121906851794   0.12251858636   0.12321751066   
      0.124005552211   0.124884723617   0.12585704762   0.126924459564   0.128088683454   
      0.129351078373   0.13071245314   0.132172849014   0.133731293005   0.135385527895   
      0.137131729361   0.138964225045   0.140875234693   0.142854653701   0.14488990379   
      0.146965873463   0.149064966895   0.151167273094   0.153250858092   0.155292172776   
      0.157266559077   0.159148829187   0.160913887303   0.162537361818   0.163996217811   
      0.165269324456   0.166337958477   0.1671862318   0.167801437958   0.168174316667   
      0.168299239011   0.168174316667   0.167801437958   0.1671862318   0.166337958477   
      0.165269324456   0.163996217811   0.162537361818   0.160913887303   0.159148829187   
      0.157266559077   0.155292172776   0.153250858092   0.151167273094   0.149064966895   
      0.146965873463   0.14488990379   0.142854653701   0.140875234693   0.138964225045   
      0.137131729361   0.135385527895   0.133731293005   0.132172849014   0.13071245314   
      0.129351078373   0.128088683454   0.126924459564   0.12585704762   0.124884723617   
      0.124005552211   0.12321751066   0.12251858636   0.121906851794   0.121380520775   
      0.120937989659   0.120577866809   0.120298993118   0.12010045588   0.119981597816   
      0.127651688664   0.127699172545   0.127841784759   0.128080005604   0.128414630627   
      0.128846762364   0.129377797049   0.130009404524   0.13074349897   0.131582197482   
      0.132527762876   0.133582526602   0.134748787227   0.136028679867   0.13742401232   
      0.138936064702   0.14056535125   0.142311345922   0.144172177363   0.146144303763   
      0.148222183673   0.150397964276   0.152661213156   0.154998722105   0.157394410984   
      0.159829355451   0.162281954257   0.164728240531   0.16714232836   0.169496972993   
      0.171764212272   0.173916050215   0.175925142082   0.177765443675   0.179412795276   
      0.180845420753   0.182044333166   0.182993647929   0.183680811912   0.18409676118   
      0.18423602114   0.18409676118   0.183680811912   0.182993647929   0.182044333166   
      0.180845420753   0.179412795276   0.177765443675   0.175925142082   0.173916050215   
      0.171764212272   0.169496972993   0.16714232836   0.164728240531   0.162281954257   
      0.159829355451   0.157394410984   0.154998722105   0.152661213156   0.150397964276   
      0.148222183673   0.146144303763   0.144172177363   0.142311345922   0.14056535125   
      0.138936064702   0.13742401232   0.136028679867   0.134748787227   0.133582526602   
      0.132527762876   0.131582197482   0.13074349897   0.130009404524   0.129377797049   
      0.128846762364   0.128414630627   0.128080005604   0.127841784759   0.127699172545   
      0.133718432359   0.133772130429   0.133933406134   0.134202802023   0.134581215593   
      0.135069888115   0.135670386887   0.136384578717   0.137214591759   0.138162762107   
      0.139231560868   0.140423496879   0.141740989895   0.143186209203   0.144760873324   
      0.146466008098   0.148301663135   0.150266590584   0.152357895327   0.154570671867   
      0.156897649665   0.159328874636   0.161851458641   0.164449429879   0.167103713894   
      0.169792267042   0.172490371902   0.175171088802   0.177805841465   0.180365100533   
      0.182819118993   0.185138669944   0.187295740295   0.189264142958   0.191020023046   
      0.192542247945   0.193812684628   0.194816378251   0.1955416529   0.195980158032   
      0.196126883025   0.195980158032   0.1955416529   0.194816378251   0.193812684628   
      0.192542247945   0.191020023046   0.189264142958   0.187295740295   0.185138669944   
      0.182819118993   0.180365100533   0.177805841465   0.175171088802   0.172490371902   
      0.169792267042   0.167103713894   0.164449429879   0.161851458641   0.159328874636   
      0.156897649665   0.154570671867   0.152357895327   0.150266590584   0.148301663135   
      0.146466008098   0.144760873324   0.143186209203   0.141740989895   0.140423496879   
      0.139231560868   0.138162762107   0.137214591759   0.136384578717   0.135670386887   
      0.135069888115   0.134581215593   0.134202802023   0.133933406134   0.133772130429   
      0.137859600837   0.137917502952   0.138091404169   0.13838188672   0.138789912696   
      0.139316810414   0.139964252908   0.140734226065   0.14162898313   0.142650981554   
      0.14380279741   0.145087012078   0.146506065653   0.148062071832   0.14975659012   
      0.151590353285   0.153562951416   0.1556724787   0.157915155125   0.160284942313   
      0.162773179746   0.165368273669   0.168055474366   0.170816776995   0.173630975458   
      0.17647388777   0.179318755739   0.182136803647   0.184897922777   0.187571434446   
      0.190126876232   0.192534755836   0.194767224436   0.196798634672   0.198605965043   
      0.200169109325   0.201471044219   0.202497898874   0.203238955635   0.203686612348   
      0.203836333595   0.203686612348   0.203238955635   0.202497898874   0.201471044219   
      0.200169109325   0.198605965043   0.196798634672   0.194767224436   0.192534755836   
      0.190126876232   0.187571434446   0.184897922777   0.182136803647   0.179318755739   
      0.17647388777   0.173630975458   0.170816776995   0.168055474366   0.165368273669   
      0.162773179746   0.160284942313   0.157915155125   0.1556724787   0.153562951416   
      0.151590353285   0.14975659012   0.148062071832   0.146506065653   0.145087012078   
      0.14380279741   0.142650981554   0.14162898313   0.140734226065   0.139964252908   
      0.139316810414   0.138789912696   0.13838188672   0.138091404169   0.137917502952   
      0.139949176946   0.140009184621   0.140189408938   0.140490451122   0.140913304029   
      0.141459337093   0.142130272667   0.142928151105   0.143855281132   0.144914171207   
      0.14610743689   0.147437678668   0.148907324524   0.150518431989   0.15227244563   
      0.15416990842   0.156210129135   0.158390813237   0.160707671232   0.163154025915   
      0.165720447213   0.168394449271   0.17116028734   0.173998890418   0.176887958492   
      0.179802240345   0.182713990561   0.185593584834   0.18841025425   0.191132885399   
      0.193730826486   0.196174641489   0.198436764193   0.200492019536   0.202317998093   
      0.203895287403   0.205207578658   0.206241677314   0.206987451035   0.207437748361   
      0.207588317549   0.207437748361   0.206987451035   0.206241677314   0.205207578658   
      0.203895287403   0.202317998093   0.200492019536   0.198436764193   0.196174641489   
      0.193730826486   0.191132885399   0.18841025425   0.185593584834   0.182713990561   
      0.179802240345   0.176887958492   0.173998890418   0.17116028734   0.168394449271   
      0.165720447213   0.163154025915   0.160707671232   0.158390813237   0.156210129135   
      0.15416990842   0.15227244563   0.150518431989   0.148907324524   0.147437678668   
      0.14610743689   0.144914171207   0.143855281132   0.142928151105   0.142130272667   
      0.141459337093   0.140913304029   0.140490451122   0.140189408938   0.140009184621   
      0.139949176946   0.140009184621   0.140189408938   0.140490451122   0.140913304029   
      0.141459337093   0.142130272667   0.142928151105   0.143855281132   0.144914171207   
      0.14610743689   0.147437678668   0.148907324524   0.150518431989   0.15227244563   
      0.15416990842   0.156210129135   0.158390813237   0.160707671232   0.163154025915   
      0.165720447213   0.168394449271   0.17116028734   0.173998890418   0.176887958492   
      0.179802240345   0.182713990561   0.185593584834   0.18841025425   0.191132885399   
      0.193730826486   0.196174641489   0.198436764193   0.200492019536   0.202317998093   
      0.203895287403   0.205207578658   0.206241677314   0.206987451035   0.207437748361   
      0.207588317549   0.207437748361   0.206987451035   0.206241677314   0.205207578658   
      0.203895287403   0.202317998093   0.200492019536   0.198436764193   0.196174641489   
      0.193730826486   0.191132885399   0.18841025425   0.185593584834   0.182713990561   
      0.179802240345   0.176887958492   0.173998890418   0.17116028734   0.168394449271   
      0.165720447213   0.163154025915   0.160707671232   0.158390813237   0.156210129135   
      0.15416990842   0.15227244563   0.150518431989   0.148907324524   0.147437678668   
      0.14610743689   0.144914171207   0.143855281132   0.142928151105   0.142130272667   
      0.141459337093   0.140913304029   0.140490451122   0.140189408938   0.140009184621   
      0.137859600837   0.137917502952   0.138091404169   0.13838188672   0.138789912696   
      0.139316810414   0.139964252908   0.140734226065   0.14162898313   0.142650981554   
      0.14380279741   0.145087012078   0.146506065653   0.148062071832   0.14975659012   
      0.151590353285   0.153562951416   0.1556724787   0.157915155125   0.160284942313   
      0.162773179746   0.165368273669   0.168055474366   0.170816776995   0.173630975458   
      0.17647388777   0.179318755739   0.182136803647   0.184897922777   0.187571434446   
      0.190126876232   0.192534755836   0.194767224436   0.196798634672   0.198605965043   
      0.200169109325   0.201471044219   0.202497898874   0.203238955635   0.203686612348   
      0.203836333595   0.203686612348   0.203238955635   0.202497898874   0.201471044219   
      0.200169109325   0.198605965043   0.196798634672   0.194767224436   0.192534755836   
      0.190126876232   0.187571434446   0.184897922777   0.182136803647   0.179318755739   
      0.17647388777   0.173630975458   0.170816776995   0.168055474366   0.165368273669   
      0.162773179746   0.160284942313   0.157915155125   0.1556724787   0.153562951416   
      0.151590353285   0.14975659012   0.148062071832   0.146506065653   0.145087012078   
      0.14380279741   0.142650981554   0.14162898313   0.140734226065   0.139964252908   
      0.139316810414   0.138789912696   0.13838188672   0.138091404169   0.137917502952   
      0.133718432359   0.133772130429   0.133933406134   0.134202802023   0.134581215593   
      0.135069888115   0.135670386887   0.136384578717   0.137214591759   0.138162762107   
      0.139231560868   0.140423496879   0.141740989895   0.143186209203   0.144760873324   
      0.146466008098   0.148301663135   0.150266590584   0.152357895327   0.154570671867   
      0.156897649665   0.159328874636   0.161851458641   0.164449429879   0.167103713894   
      0.169792267042   0.172490371902   0.175171088802   0.177805841465   0.180365100533   
      0.182819118993   0.185138669944   0.187295740295   0.189264142958   0.191020023046   
      0.192542247945   0.193812684628   0.194816378251   0.1955416529   0.195980158032   
      0.196126883025   0.195980158032   0.1955416529   0.194816378251   0.193812684628   
      0.192542247945   0.191020023046   0.189264142958   0.187295740295   0.185138669944   
      0.182819118993   0.180365100533   0.177805841465   0.175171088802   0.172490371902   
      0.169792267042   0.167103713894   0.164449429879   0.161851458641   0.159328874636   
      0.156897649665   0.154570671867   0.152357895327   0.150266590584   0.148301663135   
      0.146466008098   0.144760873324   0.143186209203   0.141740989895   0.140423496879   
      0.139231560868   0.138162762107   0.137214591759   0.136384578717   0.135670386887   
      0.135069888115   0.134581215593   0.134202802023   0.133933406134   0.133772130429   
      0.127651688664   0.127699172545   0.127841784759   0.128080005604   0.128414630627   
      0.128846762364   0.129377797049   0.130009404524   0.13074349897   0.131582197482   
      0.132527762876   0.133582526602   0.134748787227   0.136028679867   0.13742401232   
      0.138936064702   0.14056535125   0.142311345922   0.144172177363   0.146144303763   
      0.148222183673   0.150397964276   0.152661213156   0.154998722105   0.157394410984   
      0.159829355451   0.162281954257   0.164728240531   0.16714232836   0.169496972993   
      0.171764212272   0.173916050215   0.175925142082   0.177765443675   0.179412795276   
      0.180845420753   0.182044333166   0.182993647929   0.183680811912   0.18409676118   
      0.18423602114   0.18409676118   0.183680811912   0.182993647929   0.182044333166   
      0.180845420753   0.179412795276   0.177765443675   0.175925142082   0.173916050215   
      0.171764212272   0.169496972993   0.16714232836   0.164728240531   0.162281954257   
      0.159829355451   0.157394410984   0.154998722105   0.152661213156   0.150397964276   
      0.148222183673   0.146144303763   0.144172177363   0.142311345922   0.14056535125   
      0.138936064702   0.13742401232   0.136028679867   0.134748787227   0.133582526602   
      0.132527762876   0.131582197482   0.13074349897   0.130009404524   0.129377797049   
      0.128846762364   0.128414630627   0.128080005604   0.127841784759   0.127699172545   
      0.119942022601   0.119981597816   0.12010045588   0.120298993118   0.120577866809   
      0.120937989659   0.121380520775   0.121906851794   0.12251858636   0.12321751066   
      0.124005552211   0.124884723617   0.12585704762   0.126924459564   0.128088683454   
      0.129351078373   0.13071245314   0.132172849014   0.133731293005   0.135385527895   
      0.137131729361   0.138964225045   0.140875234693   0.142854653701   0.14488990379   
      0.146965873463   0.149064966895   0.151167273094   0.153250858092   0.155292172776   
      0.157266559077   0.159148829187   0.160913887303   0.162537361818   0.163996217811   
      0.165269324456   0.166337958477   0.1671862318   0.167801437958   0.168174316667   
      0.168299239011   0.168174316667   0.167801437958   0.1671862318   0.166337958477   
      0.165269324456   0.163996217811   0.162537361818   0.160913887303   0.159148829187   
      0.157266559077   0.155292172776   0.153250858092   0.151167273094   0.149064966895   
      0.146965873463   0.14488990379   0.142854653701   0.140875234693   0.138964225045   
      0.137131729361   0.135385527895   0.133731293005   0.132172849014   0.13071245314   
      0.129351078373   0.128088683454   0.126924459564   0.12585704762   0.124884723617   
      0.124005552211   0.12321751066   0.12251858636   0.121906851794   0.121380520775   
      0.120937989659   0.120577866809   0.120298993118   0.12010045588   0.119981597816   