<?xml version="1.0"?>
<VTKFile type="ImageData" version="0.1" byte_order="LittleEndian">
  <ImageData WholeExtent="0 79 0 19 0 19" Origin="0 0 0" Spacing="1 1 1">
  <Piece Extent="0 79 0 19 0 19">
    <PointData Scalars="density">
       <DataArray type="Float32" Name="reddensity" NumberOfComponents="1" format="ascii">
      0   0   0   0   0   
      0   0   0   0   0   
      0   0   0   0   0   
      0   0   0   0   0   
      0   0   0   0   0   
      0   0   0   0   0   
      0   0   0   0   0   
      0   0   0   0   0   
      0   0   0   0   0   
      0   0   0   0   0   
      0   0   0   0   0   
      0   0   0   0   0   
      0   0   0   0   0   
      0   0   0   0   0   
      0   0   0   0   0   
      0   0   0   0   0   
      0   0   0   0   0   
      0   0   0   0   0   
      0   0   0   0   0   
      0   0   0   0   0   
      0   0   0   0   0   
      0   0   0   0   0   
      0   0   0   0   0   
      0   0   0   0   0   
      0   0   0   0   0   
      0   0   0   0   0   
      0   0   0   0   0   
      0   0   0   0   0   
      0   0   0   0   0   
      0   0   0   0   0   
      0   0   0   0   0   
      0   0   0   0   0   
      0   0   0   0   0   
      0   0   0   0   0   
      0   0   0   0   0   
      0   0   0   0   0   
      0   0   0   0   0   
      0   0   0   0   0   
      0   0   0   0   0   
      0   0   0   0   0   
      0   0   0   0   0   
      0   0   0   0   0   
      0   0   0   0   0   
      0   0   0   0   0   
      0   0   0   0   0   
      0   0   0   0   0   
      0   0   0   0   0   
      0   0   0   0   0   
      0   0   0   0   0   
      0   0   0   0   0   
      0   0   0   0   0   
      0   0   0   0   0   
      0   0   0   0   0   
      0   0   0   0   0   
      0   0   0   0   0   
      0   0   0   0   0   
      0   0   0   0   0   
      0   0   0   0   0   
      0   0   0   0   0   
      0   0   0   0   0   
      0   0   0   0   0   
      0   0   0   0   0   
      0   0   0   0   0   
      0   0   0   0   0   
      0   0   0   0   0   
      0   0   0   0   0   
      0   0   0   0   0   
      0   0   0   0   0   
      0   0   0   0   0   
      0   0   0   0   0   
      0   0   0   0   0   
      0   0   0   0   0   
      0   0   0   0   0   
      0   0   0   0   0   
      0   0   0   0   0   
      0   0   0   0   0   
      0   0   0   0   0   
      0   0   0   0   0   
      0   0   0   0   0   
      0   0   0   0   0   
      0   0   0   0   0   
      0   0   0   0   0   
      0   0   0   0   0   
      0   0   0   0   0   
      0   0   0   0   0   
      0   0   0   0   0   
      0   0   0   0   0   
      0   0   0   0   0   
      0   0   0   0   0   
      0   0   0   0   0   
      0   0   0   0   0   
      0   0   0   0   0   
      0   0   0   0   0   
      0   0   0   0   0   
      0   0   0   0   0   
      0   0   0   0   0   
      0   0   0   0   0   
      0   0   0   0   0   
      0   0   0   0   0   
      0   0   0   0   0   
      0   0   0   0   0   
      0   0   0   0   0   
      0   0   0   0   0   
      0   0   0   0   0   
      0   0   0   0   0   
      0   0   0   0   0   
      0   0   0   0   0   
      0   0   0   0   0   
      0   0   0   0   0   
      0   0   0   0   0   
      0   0   0   0   0   
      0   0   0   0   0   
      0   0   0   0   0   
      0   0   0   0   0   
      0   0   0   0   0   
      0   0   0   0   0   
      0   0   0   0   0   
      0   0   0   0   0   
      0   0   0   0   0   
      0   0   0   0   0   
      0   0   0   0   0   
      0   0   0   0   0   
      0   0   0   0   0   
      0   0   0   0   0   
      0   0   0   0   0   
      0   0   0   0   0   
      0   0   0   0   0   
      0   0   0   0   0   
      0   0   0   0   0   
      0   0   0   0   0   
      0   0   0   0   0   
      0   0   0   0   0   
      0   0   0   0   0   
      0   0   0   0   0   
      0   0   0   0   0   
      0   0   0   0   0   
      0   0   0   0   0   
      0   0   0   0   0   
      0   0   0   0   0   
      0   0   0   0   0   
      0   0   0   0   0   
      0   0   0   0   0   
      0   0   0   0   0   
      0   0   0   0   0   
      0   0   0   0   0   
      0   0   0   0   0   
      0   0   0   0   0   
      0   0   0   0   0   
      0   0   0   0   0   
      0   0   0   0   0   
      0   0   0   0   0   
      0   0   0   0   0   
      0   0   0   0   0   
      0   0   0   0   0   
      0   0   0   0   0   
      0   0   0   0   0   
      0   0   0   0   0   
      0   0   0   0   0   
      0   0   0   0   0   
      0   0   0   0   0   
      0   0   0   0   0   
      0   0   0   0   0   
      0   0   0   0   0   
      0   0   0   0   0   
      0   0   0   0   0   
      0   0   0   0   0   
      0   0   0   0   0   
      0   0   0   0   0   
      0   0   0   0   0   
      0   0   0   0   0   
      0   0   0   0   0   
      0   0   0   0   0   
      0   0   0   0   0   
      0   0   0   0   0   
      0   0   0   0   0   
      0   0   0   0   0   
      0   0   0   0   0   
      0   0   0   0   0   
      0   0   0   0   0   
      0   0   0   0   0   
      0   0   0   0   0   
      0   0   0   0   0   
      0   0   0   0   0   
      0   0   0   0   0   
      0   0   0   0   0   
      0   0   0   0   0   
      0   0   0   0   0   
      0   0   0   0   0   
      0   0   0   0   0   
      0   0   0   0   0   
      0   0   0   0   0   
      0   0   0   0   0   
      0   0   0   0   0   
      0   0   0   0   0   
      0   0   0   0   0   
      0   0   0   0   0   
      0   0   0   0   0   
      0   0   0   0   0   
      0   0   0   0   0   
      0   0   0   0   0   
      0   0   0   0   0   
      0   0   0   0   0   
      0   0   0   0   0   
      0   0   0   0   0   
      0   0   0   0   0   
      0   0   0   0   0   
      0   0   0   0   0   
      0   0   0   0   0   
      0   0   0   0   0   
      0   0   0   0   0   
      0   0   0   0   0   
      0   0   0   0   0   
      0   0   0   0   0   
      0   0   0   0   0   
      0   0   0   0   0   
      0   0   0   0   0   
      0   0   0   0   0   
      0   0   0   0   0   
      0   0   0   0   0   
      0   0   0   0   0   
      0   0   0   0   0   
      0   0   0   0   0   
      0   0   0   0   0   
      0   0   0   0   0   
      0   0   0   0   0   
      0   0   0   0   0   
      0   0   0   0   0   
      0   0   0   0   0   
      0   0   0   0   0   
      0   0   0   0   0   
      0   0   0   0   0   
      0   0   0   0   0   
      0   0   0   0   0   
      0   0   0   0   0   
      0   0   0   0   0   
      0   0   0   0   0   
      0   0   0   0   0   
      0   0   0   0   0   
      0   0   0   0   0   
      0   0   0   0   0   
      0   0   0   0   0   
      0   0   0   0   0   
      0   0   0   0   0   
      0   0   0   0   0   
      0   0   0   0   0   
      0   0   0   0   0   
      0   0   0   0   0   
      0   0   0   0   0   
      0   0   0   0   0   
      0   0   0   0   0   
      0   0   0   0   0   
      0   0   0   0   0   
      0   0   0   0   0   
      0   0   0   0   0   
      0   0   0   0   0   
      0   0   0   0   0   
      0   0   0   0   0   
      0   0   0   0   0   
      0   0   0   0   0   
      0   0   0   0   0   
      0   0   0   0   0   
      0   0   0   0   0   
      0   0   0   0   0   
      0   0   0   0   0   
      0   0   0   0   0   
      0   0   0   0   0   
      0   0   0   0   0   
      0   0   0   0   0   
      0   0   0   0   0   
      0   0   0   0   0   
      0   0   0   0   0   
      0   0   0   0   0   
      0   0   0   0   0   
      0   0   0   0   0   
      0   0   0   0   0   
      0   0   0   0   0   
      0   0   0   0   0   
      0   0   0   0   0   
      0   0   0   0   0   
      0   0   0   0   0   
      0   0   0   0   0   
      0   0   0   0   0   
      0   0   0   0   0   
      0   0   0   0   0   
      0   0   0   0   0   
      0   0   0   0   0   
      0   0   0   0   0   
      0   0   0   0   0   
      0   0   0   0   0   
      0   0   0   0   0   
      0   0   0   0   0   
      0   0   0   0   0   
      0   0   0   0   0   
      0   0   0   0   0   
      0   0   0   0   0   
      0   0   0   0   0   
      0   0   0   0   0   
      0   0   0   0   0   
      0   0   0   0   0   
      0   0   0   0   0   
      0   0   0   0   0   
      0   0   0   0   0   
      0   0   0   0   0   
      0   0   0   0   0   
      0   0   0   0   0   
      0   0   0   0   0   
      0   0   0   0   0   
      0   0   0   0   0   
      0   0   0   0   0   
      0   0   0   0   0   
      0   0   0   0   0   
      0   0   0   0   0   
      0   0   0   0   0   
      0   0   0   0   0   
      0   0   0   0   0   
      0   0   0   0   0   
      0   0   0   0   0   
      0   0   0   0   0   
      0   0   0   0   0   
      0   0   0   0   0   
      0   0   0   0   0   
      0   0   0   0   0   
      0   0   0   0   0   
      0   0   0   0   0   
      0   0   0   0   0   
      0   0   0   0   0   
      0   0   0   0   0   
      0   0   0   0   0   
      0   0   0   0   0   
      0   0   0   0   0   
      0   0   0   0   0   
      0   0   0   0   0   
      0   0   0   0   0   
      0   0   0   0   0   
      0   0   0   0   0   
      0   0   0   0   0   
      0.0821519184012   0.0821598709064   0.0821837363478   0.0822235382   0.0822793145586   
      0.0823511165334   0.0824390058696   0.0825430516677   0.0826633260356   0.0827998984693   
      0.0829528287273   0.0831221579395   0.0833078976773   0.0835100167142   0.0837284252401   
      0.0839629563462   0.0842133447066   0.0844792025227   0.0847599929985   0.0850550018609   
      0.0853633077272   0.0856837524471   0.0860149128709   0.0863550758063   0.0867022181773   
      0.087053994554   0.0874077342452   0.0877604499998   0.0881088600363   0.0884494245903   
      0.0887783974749   0.0890918923021   0.0893859620814   0.089656689959   0.0899002879641   
      0.0901131998705   0.0902922037231   0.0904345092905   0.0905378457113   0.0906005349192   
      0.0906215470511   0.0906005349192   0.0905378457113   0.0904345092905   0.0902922037231   
      0.0901131998705   0.0899002879641   0.089656689959   0.0893859620814   0.0890918923021   
      0.0887783974749   0.0884494245903   0.0881088600363   0.0877604499998   0.0874077342452   
      0.087053994554   0.0867022181773   0.0863550758063   0.0860149128709   0.0856837524471   
      0.0853633077272   0.0850550018609   0.0847599929985   0.0844792025227   0.0842133447066   
      0.0839629563462   0.0837284252401   0.0835100167142   0.0833078976773   0.0831221579395   
      0.0829528287273   0.0827998984693   0.0826633260356   0.0825430516677   0.0824390058696   
      0.0823511165334   0.0822793145586   0.0822235382   0.0821837363478   0.0821598709064   
      0.090046867109   0.0900581662426   0.0900920776276   0.0901486427533   0.0902279291963   
      0.0903300281665   0.0904550508777   0.0906031235513   0.0907743808026   0.0909689571095   
      0.0911869760156   0.0914285366865   0.0916936974167   0.0919824556999   0.0922947245174   
      0.0926303045977   0.0929888525535   0.093369845027   0.0937725392723   0.0941959309704   
      0.0946387105087   0.0950992194243   0.0955754091939   0.0960648049902   0.096564477377   
      0.0970710251123   0.097580572223   0.0980887822578   0.0985908920946   0.0990817668672   
      0.0995559765261   0.100007893303   0.100431808011   0.100822061765   0.101173188497   
      0.101480062611   0.101738045445   0.10194312389   0.102092034587   0.102182367649   
      0.102212644755   0.102182367649   0.102092034587   0.10194312389   0.101738045445   
      0.101480062611   0.101173188497   0.100822061765   0.100431808011   0.100007893303   
      0.0995559765261   0.0990817668672   0.0985908920946   0.0980887822578   0.097580572223   
      0.0970710251123   0.096564477377   0.0960648049902   0.0955754091939   0.0950992194243   
      0.0946387105087   0.0941959309704   0.0937725392723   0.093369845027   0.0929888525535   
      0.0926303045977   0.0922947245174   0.0919824556999   0.0916936974167   0.0914285366865   
      0.0911869760156   0.0909689571095   0.0907743808026   0.0906031235513   0.0904550508777   
      0.0903300281665   0.0902279291963   0.0901486427533   0.0900920776276   0.0900581662426   
      0.103327806177   0.1033460956   0.103400991043   0.103492573213   0.103620973822   
      0.10378637124   0.103988984052   0.104229062216   0.10450687537   0.104822697791   
      0.105176789394   0.105569372154   0.10600060126   0.106470530388   0.10697907055   
      0.107525942167   0.108110620306   0.108732273422   0.109389696481   0.110081239992   
      0.110804737197   0.111557432495   0.11233591491   0.113136061129   0.113952993087   
      0.114781055282   0.115613816828   0.116444102597   0.117264056772   0.118065240587   
      0.11883876423   0.119575450815   0.120266028261   0.120901342937   0.12147258728   
      0.121971532367   0.122390755728   0.122723854547   0.122965634862   0.123112268322   
      0.123161409475   0.123112268322   0.122965634862   0.122723854547   0.122390755728   
      0.121971532367   0.12147258728   0.120901342937   0.120266028261   0.119575450815   
      0.11883876423   0.118065240587   0.117264056772   0.116444102597   0.115613816828   
      0.114781055282   0.113952993087   0.113136061129   0.11233591491   0.111557432495   
      0.110804737197   0.110081239992   0.109389696481   0.108732273422   0.108110620306   
      0.107525942167   0.10697907055   0.106470530388   0.10600060126   0.105569372154   
      0.105176789394   0.104822697791   0.10450687537   0.104229062216   0.103988984052   
      0.10378637124   0.103620973822   0.103492573213   0.103400991043   0.1033460956   
      0.113994287865   0.114020136747   0.114097724979   0.11422717603   0.114408691317   
      0.114642543415   0.114929066039   0.115268640296   0.115661676584   0.116108591356   
      0.116609777906   0.11716557025   0.117776199182   0.118441739653   0.119162048841   
      0.119936694568   0.120764874235   0.121645325094   0.12257622754   0.12355510405   
      0.124578717554   0.125642974078   0.126742835548   0.127872249414   0.129024102176   
      0.130190203759   0.131361309016   0.13252718126   0.133676700793   0.134798018965   
      0.135878755604   0.136906234908   0.137867752382   0.138750863319   0.139543681916   
      0.140235179353   0.140815469192   0.141276069081   0.14161012889   0.141812616959   
      0.141880457862   0.141812616959   0.14161012889   0.141276069081   0.140815469192   
      0.140235179353   0.139543681916   0.138750863319   0.137867752382   0.136906234908   
      0.135878755604   0.134798018965   0.133676700793   0.13252718126   0.131361309016   
      0.130190203759   0.129024102176   0.127872249414   0.126742835548   0.125642974078   
      0.124578717554   0.12355510405   0.12257622754   0.121645325094   0.120764874235   
      0.119936694568   0.119162048841   0.118441739653   0.117776199182   0.11716557025   
      0.116609777906   0.116108591356   0.115661676584   0.115268640296   0.114929066039   
      0.114642543415   0.114408691317   0.11422717603   0.114097724979   0.114020136747   
      0.123887805969   0.123921282027   0.124021765335   0.12418941945   0.124424510713   
      0.124727398513   0.125098520971   0.125538375351   0.126047492331   0.126626403134   
      0.12727559838   0.127995477483   0.12878628748   0.129648050301   0.130580477892   
      0.131582875071   0.132654030788   0.133792099466   0.134994475266   0.136257663543   
      0.137577155152   0.138947310668   0.140361262649   0.141810844754   0.143286556523   
      0.144777571829   0.146271797426   0.147755985515   0.149215901252   0.150636542639   
      0.152002406849   0.153297793969   0.154507136793   0.155615343864   0.156608142552   
      0.157472409471   0.158196476873   0.158770405432   0.159186215877   0.159438073913   
      0.159522424616   0.159438073913   0.159186215877   0.158770405432   0.158196476873   
      0.157472409471   0.156608142552   0.155615343864   0.154507136793   0.153297793969   
      0.152002406849   0.150636542639   0.149215901252   0.147755985515   0.146271797426   
      0.144777571829   0.143286556523   0.141810844754   0.140361262649   0.138947310668   
      0.137577155152   0.136257663543   0.134994475266   0.133792099466   0.132654030788   
      0.131582875071   0.130580477892   0.129648050301   0.12878628748   0.127995477483   
      0.12727559838   0.126626403134   0.126047492331   0.125538375351   0.125098520971   
      0.124727398513   0.124424510713   0.12418941945   0.124021765335   0.123921282027   
      0.132420414634   0.132460604453   0.13258123921   0.132782512347   0.133064737982   
      0.133428338031   0.133873823317   0.134401767797   0.135012774838   0.135707434333   
      0.136486269283   0.137349670513   0.138297818291   0.139330589907   0.140447452815   
      0.141647343716   0.142928535013   0.144288491453   0.145723721308   0.147229628206   
      0.148800371359   0.150428743435   0.152106076245   0.153822184648   0.155565358386   
      0.157322409715   0.159078781954   0.160818720353   0.162525502559   0.164181721755   
      0.165769611837   0.167271401236   0.168669680471   0.169947768387   0.171090063225   
      0.172082366853   0.172912173275   0.173568915525   0.174044167714   0.174331801153   
      0.174428094833   0.174331801153   0.174044167714   0.173568915525   0.172912173275   
      0.172082366853   0.171090063225   0.169947768387   0.168669680471   0.167271401236   
      0.165769611837   0.164181721755   0.162525502559   0.160818720353   0.159078781954   
      0.157322409715   0.155565358386   0.153822184648   0.152106076245   0.150428743435   
      0.148800371359   0.147229628206   0.145723721308   0.144288491453   0.142928535013   
      0.141647343716   0.140447452815   0.139330589907   0.138297818291   0.137349670513   
      0.136486269283   0.135707434333   0.135012774838   0.134401767797   0.133873823317   
      0.133428338031   0.133064737982   0.132782512347   0.13258123921   0.132460604453   
      0.139136738877   0.139182182683   0.139318585699   0.139546159698   0.139865247435   
      0.140276306824   0.140779887778   0.141376600689   0.142067075363   0.142851908983   
      0.143731601641   0.144706477992   0.145776593809   0.146941626668   0.148200750703   
      0.149552496422   0.150994597919   0.152523831519   0.154135851741   0.155825032447   
      0.157584322837   0.159405129307   0.161277234826   0.163188767105   0.16512622522   
      0.167074571479   0.169017391377   0.170937119721   0.172815326071   0.174633048095   
      0.176371157896   0.178010744348   0.179533494177   0.180922055917   0.182160373711   
      0.183233981603   0.184130253002   0.18483860376   0.185350650277   0.185660326039   
      0.185763960757   0.185660326039   0.185350650277   0.18483860376   0.184130253002   
      0.183233981603   0.182160373711   0.180922055917   0.179533494177   0.178010744348   
      0.176371157896   0.174633048095   0.172815326071   0.170937119721   0.169017391377   
      0.167074571479   0.16512622522   0.163188767105   0.161277234826   0.159405129307   
      0.157584322837   0.155825032447   0.154135851741   0.152523831519   0.150994597919   
      0.149552496422   0.148200750703   0.146941626668   0.145776593809   0.144706477992   
      0.143731601641   0.142851908983   0.142067075363   0.141376600689   0.140779887778   
      0.140276306824   0.139865247435   0.139546159698   0.139318585699   0.139182182683   
      0.143718546019   0.143767529653   0.143914555302   0.144159843757   0.144503751302   
      0.144946751602   0.145489409214   0.146132343646   0.146876182639   0.147721503179   
      0.148668758689   0.149718190956   0.150869725633   0.152122850736   0.153476478451   
      0.154928791791   0.156477079249   0.158117562482   0.159845224173   0.161653645281   
      0.163534862707   0.165479259607   0.167475500845   0.169510525096   0.171569602738   
      0.173636464934   0.175693504462   0.177722043367   0.179702657168   0.181615540737   
      0.183440897843   0.185159335152   0.186752242278   0.188202142183   0.189493000235   
      0.190610485041   0.191542178913   0.192277739971   0.192809020891   0.19313015104   
      0.193237588935   0.19313015104   0.192809020891   0.192277739971   0.191542178913   
      0.190610485041   0.189493000235   0.188202142183   0.186752242278   0.185159335152   
      0.183440897843   0.181615540737   0.179702657168   0.177722043367   0.175693504462   
      0.173636464934   0.171569602738   0.169510525096   0.167475500845   0.165479259607   
      0.163534862707   0.161653645281   0.159845224173   0.158117562482   0.156477079249   
      0.154928791791   0.153476478451   0.152122850736   0.150869725633   0.149718190956   
      0.148668758689   0.147721503179   0.146876182639   0.146132343646   0.145489409214   
      0.144946751602   0.144503751302   0.144159843757   0.143914555302   0.143767529653   
      0.14602909922   0.146079850302   0.146232179471   0.146486310796   0.146842605205   
      0.147301541107   0.147863686096   0.148529658592   0.149300078055   0.150175502251   
      0.151156349974   0.1522428078   0.153434719769   0.154731459554   0.156131785646   
      0.157633681445   0.159234183853   0.160929205999   0.1627133619   0.164579803018   
      0.166520078435   0.168524031463   0.170579745515   0.172673550746   0.174790100138   
      0.17691251951   0.179022630582   0.181101240476   0.183128485444   0.18508421212   
      0.186948376755   0.188701442202   0.1903247539   0.191800879451   0.193113901122   
      0.194249655854   0.195195922447   0.195942559896   0.196481603777   0.196807329097   
      0.196916287965   0.196807329097   0.196481603777   0.195942559896   0.195195922447   
      0.194249655854   0.193113901122   0.191800879451   0.1903247539   0.188701442202   
      0.186948376755   0.18508421212   0.183128485444   0.181101240476   0.179022630582   
      0.17691251951   0.174790100138   0.172673550746   0.170579745515   0.168524031463   
      0.166520078435   0.164579803018   0.1627133619   0.160929205999   0.159234183853   
      0.157633681445   0.156131785646   0.154731459554   0.153434719769   0.1522428078   
      0.151156349974   0.150175502251   0.149300078055   0.148529658592   0.147863686096   
      0.147301541107   0.146842605205   0.146486310796   0.146232179471   0.146079850302   
      0.14602909922   0.146079850302   0.146232179471   0.146486310796   0.146842605205   
      0.147301541107   0.147863686096   0.148529658592   0.149300078055   0.150175502251   
      0.151156349974   0.1522428078   0.153434719769   0.154731459554   0.156131785646   
      0.157633681445   0.159234183853   0.160929205999   0.1627133619   0.164579803018   
      0.166520078435   0.168524031463   0.170579745515   0.172673550746   0.174790100138   
      0.17691251951   0.179022630582   0.181101240476   0.183128485444   0.18508421212   
      0.186948376755   0.188701442202   0.1903247539   0.191800879451   0.193113901122   
      0.194249655854   0.195195922447   0.195942559896   0.196481603777   0.196807329097   
      0.196916287965   0.196807329097   0.196481603777   0.195942559896   0.195195922447   
      0.194249655854   0.193113901122   0.191800879451   0.1903247539   0.188701442202   
      0.186948376755   0.18508421212   0.183128485444   0.181101240476   0.179022630582   
      0.17691251951   0.174790100138   0.172673550746   0.170579745515   0.168524031463   
      0.166520078435   0.164579803018   0.1627133619   0.160929205999   0.159234183853   
      0.157633681445   0.156131785646   0.154731459554   0.153434719769   0.1522428078   
      0.151156349974   0.150175502251   0.149300078055   0.148529658592   0.147863686096   
      0.147301541107   0.146842605205   0.146486310796   0.146232179471   0.146079850302   
      0.143718546019   0.143767529653   0.143914555302   0.144159843757   0.144503751302   
      0.144946751602   0.145489409214   0.146132343646   0.146876182639   0.147721503179   
      0.148668758689   0.149718190956   0.150869725633   0.152122850736   0.153476478451   
      0.154928791791   0.156477079249   0.158117562482   0.159845224173   0.161653645281   
      0.163534862707   0.165479259607   0.167475500845   0.169510525096   0.171569602738   
      0.173636464934   0.175693504462   0.177722043367   0.179702657168   0.181615540737   
      0.183440897843   0.185159335152   0.186752242278   0.188202142183   0.189493000235   
      0.190610485041   0.191542178913   0.192277739971   0.192809020891   0.19313015104   
      0.193237588935   0.19313015104   0.192809020891   0.192277739971   0.191542178913   
      0.190610485041   0.189493000235   0.188202142183   0.186752242278   0.185159335152   
      0.183440897843   0.181615540737   0.179702657168   0.177722043367   0.175693504462   
      0.173636464934   0.171569602738   0.169510525096   0.167475500845   0.165479259607   
      0.163534862707   0.161653645281   0.159845224173   0.158117562482   0.156477079249   
      0.154928791791   0.153476478451   0.152122850736   0.150869725633   0.149718190956   
      0.148668758689   0.147721503179   0.146876182639   0.146132343646   0.145489409214   
      0.144946751602   0.144503751302   0.144159843757   0.143914555302   0.143767529653   
      0.139136738877   0.139182182683   0.139318585699   0.139546159698   0.139865247435   
      0.140276306824   0.140779887778   0.141376600689   0.142067075363   0.142851908983   
      0.143731601641   0.144706477992   0.145776593809   0.146941626668   0.148200750703   
      0.149552496422   0.150994597919   0.152523831519   0.154135851741   0.155825032447   
      0.157584322837   0.159405129307   0.161277234826   0.163188767105   0.16512622522   
      0.167074571479   0.169017391377   0.170937119721   0.172815326071   0.174633048095   
      0.176371157896   0.178010744348   0.179533494177   0.180922055917   0.182160373711   
      0.183233981603   0.184130253002   0.18483860376   0.185350650277   0.185660326039   
      0.185763960757   0.185660326039   0.185350650277   0.18483860376   0.184130253002   
      0.183233981603   0.182160373711   0.180922055917   0.179533494177   0.178010744348   
      0.176371157896   0.174633048095   0.172815326071   0.170937119721   0.169017391377   
      0.167074571479   0.16512622522   0.163188767105   0.161277234826   0.159405129307   
      0.157584322837   0.155825032447   0.154135851741   0.152523831519   0.150994597919   
      0.149552496422   0.148200750703   0.146941626668   0.145776593809   0.144706477992   
      0.143731601641   0.142851908983   0.142067075363   0.141376600689   0.140779887778   
      0.140276306824   0.139865247435   0.139546159698   0.139318585699   0.139182182683   
      0.132420414634   0.132460604453   0.13258123921   0.132782512347   0.133064737982   
      0.133428338031   0.133873823317   0.134401767797   0.135012774838   0.135707434333   
      0.136486269283   0.137349670513   0.138297818291   0.139330589907   0.140447452815   
      0.141647343716   0.142928535013   0.144288491453   0.145723721308   0.147229628206   
      0.148800371359   0.150428743435   0.152106076245   0.153822184648   0.155565358386   
      0.157322409715   0.159078781954   0.160818720353   0.162525502559   0.164181721755   
      0.165769611837   0.167271401236   0.168669680471   0.169947768387   0.171090063225   
      0.172082366853   0.172912173275   0.173568915525   0.174044167714   0.174331801153   
      0.174428094833   0.174331801153   0.174044167714   0.173568915525   0.172912173275   
      0.172082366853   0.171090063225   0.169947768387   0.168669680471   0.167271401236   
      0.165769611837   0.164181721755   0.162525502559   0.160818720353   0.159078781954   
      0.157322409715   0.155565358386   0.153822184648   0.152106076245   0.150428743435   
      0.148800371359   0.147229628206   0.145723721308   0.144288491453   0.142928535013   
      0.141647343716   0.140447452815   0.139330589907   0.138297818291   0.137349670513   
      0.136486269283   0.135707434333   0.135012774838   0.134401767797   0.133873823317   
      0.133428338031   0.133064737982   0.132782512347   0.13258123921   0.132460604453   
      0.123887805969   0.123921282027   0.124021765335   0.12418941945   0.124424510713   
      0.124727398513   0.125098520971   0.125538375351   0.126047492331   0.126626403134   
      0.12727559838   0.127995477483   0.12878628748   0.129648050301   0.130580477892   
      0.131582875071   0.132654030788   0.133792099466   0.134994475266   0.136257663543   
      0.137577155152   0.138947310668   0.140361262649   0.141810844754   0.143286556523   
      0.144777571829   0.146271797426   0.147755985515   0.149215901252   0.150636542639   
      0.152002406849   0.153297793969   0.154507136793   0.155615343864   0.156608142552   
      0.157472409471   0.158196476873   0.158770405432   0.159186215877   0.159438073913   
      0.159522424616   0.159438073913   0.159186215877   0.158770405432   0.158196476873   
      0.157472409471   0.156608142552   0.155615343864   0.154507136793   0.153297793969   
      0.152002406849   0.150636542639   0.149215901252   0.147755985515   0.146271797426   
      0.144777571829   0.143286556523   0.141810844754   0.140361262649   0.138947310668   
      0.137577155152   0.136257663543   0.134994475266   0.133792099466   0.132654030788   
      0.131582875071   0.130580477892   0.129648050301   0.12878628748   0.127995477483   
      0.12727559838   0.126626403134   0.126047492331   0.125538375351   0.125098520971   