<?xml version="1.0"?>
<VTKFile type="ImageData" version="0.1" byte_order="LittleEndian">
  <ImageData WholeExtent="0 79 0 19 0 19" Origin="0 0 0" Spacing="1 1 1">
  <Piece Extent="0 79 0 19 0 19">
    <PointData Scalars="density">
       <DataArray type="Float32" Name="reddensity" NumberOfComponents="1" format="ascii">
      0   0   0   0   0   
      0   0   0   0   0   
      0   0   0   0   0   
      0   0   0   0   0   
      0   0   0   0   0   
      0   0   0   0   0   
      0   0   0   0   0   
      0   0   0   0   0   
      0   0   0   0   0   
      0   0   0   0   0   
      0   0   0   0   0   
      0   0   0   0   0   
      0   0   0   0   0   
      0   0   0   0   0   
      0   0   0   0   0   
      0   0   0   0   0   
      0   0   0   0   0   
      0   0   0   0   0   
      0   0   0   0   0   
      0   0   0   0   0   
      0   0   0   0   0   
      0   0   0   0   0   
      0   0   0   0   0   
      0   0   0   0   0   
      0   0   0   0   0   
      0   0   0   0   0   
      0   0   0   0   0   
      0   0   0   0   0   
      0   0   0   0   0   
      0   0   0   0   0   
      0   0   0   0   0   
      0   0   0   0   0   
      0   0   0   0   0   
      0   0   0   0   0   
      0   0   0   0   0   
      0   0   0   0   0   
      0   0   0   0   0   
      0   0   0   0   0   
      0   0   0   0   0   
      0   0   0   0   0   
      0   0   0   0   0   
      0   0   0   0   0   
      0   0   0   0   0   
      0   0   0   0   0   
      0   0   0   0   0   
      0   0   0   0   0   
      0   0   0   0   0   
      0   0   0   0   0   
      0   0   0   0   0   
      0   0   0   0   0   
      0   0   0   0   0   
      0   0   0   0   0   
      0   0   0   0   0   
      0   0   0   0   0   
      0   0   0   0   0   
      0   0   0   0   0   
      0   0   0   0   0   
      0   0   0   0   0   
      0   0   0   0   0   
      0   0   0   0   0   
      0   0   0   0   0   
      0   0   0   0   0   
      0   0   0   0   0   
      0   0   0   0   0   
      0   0   0   0   0   
      0   0   0   0   0   
      0   0   0   0   0   
      0   0   0   0   0   
      0   0   0   0   0   
      0   0   0   0   0   
      0   0   0   0   0   
      0   0   0   0   0   
      0   0   0   0   0   
      0   0   0   0   0   
      0   0   0   0   0   
      0   0   0   0   0   
      0   0   0   0   0   
      0   0   0   0   0   
      0   0   0   0   0   
      0   0   0   0   0   
      0   0   0   0   0   
      0   0   0   0   0   
      0   0   0   0   0   
      0   0   0   0   0   
      0   0   0   0   0   
      0   0   0   0   0   
      0   0   0   0   0   
      0   0   0   0   0   
      0   0   0   0   0   
      0   0   0   0   0   
      0   0   0   0   0   
      0   0   0   0   0   
      0   0   0   0   0   
      0   0   0   0   0   
      0   0   0   0   0   
      0   0   0   0   0   
      0   0   0   0   0   
      0   0   0   0   0   
      0   0   0   0   0   
      0   0   0   0   0   
      0   0   0   0   0   
      0   0   0   0   0   
      0   0   0   0   0   
      0   0   0   0   0   
      0   0   0   0   0   
      0   0   0   0   0   
      0   0   0   0   0   
      0   0   0   0   0   
      0   0   0   0   0   
      0   0   0   0   0   
      0   0   0   0   0   
      0   0   0   0   0   
      0   0   0   0   0   
      0   0   0   0   0   
      0   0   0   0   0   
      0   0   0   0   0   
      0   0   0   0   0   
      0   0   0   0   0   
      0   0   0   0   0   
      0   0   0   0   0   
      0   0   0   0   0   
      0   0   0   0   0   
      0   0   0   0   0   
      0   0   0   0   0   
      0   0   0   0   0   
      0   0   0   0   0   
      0   0   0   0   0   
      0   0   0   0   0   
      0   0   0   0   0   
      0   0   0   0   0   
      0   0   0   0   0   
      0   0   0   0   0   
      0   0   0   0   0   
      0   0   0   0   0   
      0   0   0   0   0   
      0   0   0   0   0   
      0   0   0   0   0   
      0   0   0   0   0   
      0   0   0   0   0   
      0   0   0   0   0   
      0   0   0   0   0   
      0   0   0   0   0   
      0   0   0   0   0   
      0   0   0   0   0   
      0   0   0   0   0   
      0   0   0   0   0   
      0   0   0   0   0   
      0   0   0   0   0   
      0   0   0   0   0   
      0   0   0   0   0   
      0   0   0   0   0   
      0   0   0   0   0   
      0   0   0   0   0   
      0   0   0   0   0   
      0   0   0   0   0   
      0   0   0   0   0   
      0   0   0   0   0   
      0   0   0   0   0   
      0   0   0   0   0   
      0   0   0   0   0   
      0   0   0   0   0   
      0   0   0   0   0   
      0   0   0   0   0   
      0   0   0   0   0   
      0   0   0   0   0   
      0   0   0   0   0   
      0   0   0   0   0   
      0   0   0   0   0   
      0   0   0   0   0   
      0   0   0   0   0   
      0   0   0   0   0   
      0   0   0   0   0   
      0   0   0   0   0   
      0   0   0   0   0   
      0   0   0   0   0   
      0   0   0   0   0   
      0   0   0   0   0   
      0   0   0   0   0   
      0   0   0   0   0   
      0   0   0   0   0   
      0   0   0   0   0   
      0   0   0   0   0   
      0   0   0   0   0   
      0   0   0   0   0   
      0   0   0   0   0   
      0   0   0   0   0   
      0   0   0   0   0   
      0   0   0   0   0   
      0   0   0   0   0   
      0   0   0   0   0   
      0   0   0   0   0   
      0   0   0   0   0   
      0   0   0   0   0   
      0   0   0   0   0   
      0   0   0   0   0   
      0   0   0   0   0   
      0   0   0   0   0   
      0   0   0   0   0   
      0   0   0   0   0   
      0   0   0   0   0   
      0   0   0   0   0   
      0   0   0   0   0   
      0   0   0   0   0   
      0   0   0   0   0   
      0   0   0   0   0   
      0   0   0   0   0   
      0   0   0   0   0   
      0   0   0   0   0   
      0   0   0   0   0   
      0   0   0   0   0   
      0   0   0   0   0   
      0   0   0   0   0   
      0   0   0   0   0   
      0   0   0   0   0   
      0   0   0   0   0   
      0   0   0   0   0   
      0   0   0   0   0   
      0   0   0   0   0   
      0   0   0   0   0   
      0   0   0   0   0   
      0   0   0   0   0   
      0   0   0   0   0   
      0   0   0   0   0   
      0   0   0   0   0   
      0   0   0   0   0   
      0   0   0   0   0   
      0   0   0   0   0   
      0   0   0   0   0   
      0   0   0   0   0   
      0   0   0   0   0   
      0   0   0   0   0   
      0   0   0   0   0   
      0   0   0   0   0   
      0   0   0   0   0   
      0   0   0   0   0   
      0   0   0   0   0   
      0   0   0   0   0   
      0   0   0   0   0   
      0   0   0   0   0   
      0   0   0   0   0   
      0   0   0   0   0   
      0   0   0   0   0   
      0   0   0   0   0   
      0   0   0   0   0   
      0   0   0   0   0   
      0   0   0   0   0   
      0   0   0   0   0   
      0   0   0   0   0   
      0   0   0   0   0   
      0   0   0   0   0   
      0   0   0   0   0   
      0   0   0   0   0   
      0   0   0   0   0   
      0   0   0   0   0   
      0   0   0   0   0   
      0   0   0   0   0   
      0   0   0   0   0   
      0   0   0   0   0   
      0   0   0   0   0   
      0   0   0   0   0   
      0   0   0   0   0   
      0   0   0   0   0   
      0   0   0   0   0   
      0   0   0   0   0   
      0   0   0   0   0   
      0   0   0   0   0   
      0   0   0   0   0   
      0   0   0   0   0   
      0   0   0   0   0   
      0   0   0   0   0   
      0   0   0   0   0   
      0   0   0   0   0   
      0   0   0   0   0   
      0   0   0   0   0   
      0   0   0   0   0   
      0   0   0   0   0   
      0   0   0   0   0   
      0   0   0   0   0   
      0   0   0   0   0   
      0   0   0   0   0   
      0   0   0   0   0   
      0   0   0   0   0   
      0   0   0   0   0   
      0   0   0   0   0   
      0   0   0   0   0   
      0   0   0   0   0   
      0   0   0   0   0   
      0   0   0   0   0   
      0   0   0   0   0   
      0   0   0   0   0   
      0   0   0   0   0   
      0   0   0   0   0   
      0   0   0   0   0   
      0   0   0   0   0   
      0   0   0   0   0   
      0   0   0   0   0   
      0   0   0   0   0   
      0   0   0   0   0   
      0   0   0   0   0   
      0   0   0   0   0   
      0   0   0   0   0   
      0   0   0   0   0   
      0   0   0   0   0   
      0   0   0   0   0   
      0   0   0   0   0   
      0   0   0   0   0   
      0   0   0   0   0   
      0   0   0   0   0   
      0   0   0   0   0   
      0   0   0   0   0   
      0   0   0   0   0   
      0   0   0   0   0   
      0   0   0   0   0   
      0   0   0   0   0   
      0   0   0   0   0   
      0   0   0   0   0   
      0   0   0   0   0   
      0   0   0   0   0   
      0   0   0   0   0   
      0   0   0   0   0   
      0   0   0   0   0   
      0   0   0   0   0   
      0   0   0   0   0   
      0   0   0   0   0   
      0   0   0   0   0   
      0   0   0   0   0   
      0   0   0   0   0   
      0   0   0   0   0   
      0   0   0   0   0   
      0   0   0   0   0   
      0   0   0   0   0   
      0   0   0   0   0   
      0   0   0   0   0   
      0   0   0   0   0   
      0   0   0   0   0   
      0   0   0   0   0   
      0.0833651063781   0.0833706008518   0.0833870772933   0.0834145144897   0.0834528761677   
      0.0835021096073   0.083562143683   0.0836328863177   0.0837142213323   0.0838060046806   
      0.0839080600578   0.0840201738901   0.084142089721   0.0842735020376   0.0844140496049   
      0.0845633084131   0.0847207843837   0.0848859060253   0.0850580172848   0.0852363708865   
      0.0854201225055   0.0856083261642   0.0857999312745   0.0859937817659   0.0861886177349   
      0.0863830800247   0.0865757180833   0.0867650013617   0.0869493343923   0.0871270755425   
      0.0872965592679   0.0874561215073   0.0876041276742   0.0877390025215   0.087859261   
      0.0879635391071   0.088050623644   0.0881194797742   0.0881692753113   0.0881994007531   
      0.0882094842326   0.0881994007531   0.0881692753113   0.0881194797742   0.088050623644   
      0.0879635391071   0.087859261   0.0877390025215   0.0876041276742   0.0874561215073   
      0.0872965592679   0.0871270755425   0.0869493343923   0.0867650013617   0.0865757180833   
      0.0863830800247   0.0861886177349   0.0859937817659   0.0857999312745   0.0856083261642   
      0.0854201225055   0.0852363708865   0.0850580172848   0.0848859060253   0.0847207843837   
      0.0845633084131   0.0844140496049   0.0842735020376   0.084142089721   0.0840201738901   
      0.0839080600578   0.0838060046806   0.0837142213323   0.0836328863177   0.083562143683   
      0.0835021096073   0.0834528761677   0.0834145144897   0.0833870772933   0.0833706008518   
      0.0917967993287   0.0918046551089   0.0918282134574   0.0918674469841   0.091922308658   
      0.091992729721   0.0920786167426   0.0921798477929   0.0922962677114   0.092427682453   
      0.0925738525029   0.0927344853656   0.0929092271601   0.0930976533857   0.0932992589622   
      0.0935134477055   0.0937395214567   0.0939766691525   0.0942239562023   0.094480314607   
      0.0947445343338   0.0950152565185   0.0952909691165   0.0955700056449   0.0958505476491   
      0.09613063148   0.0964081598806   0.0966809187444   0.0969465992325   0.0972028252175   
      0.0974471857793   0.0976772722085   0.0978907187108   0.0980852457491   0.0982587047444   
      0.0984091226835   0.0985347450792   0.0986340756999   0.0987059115391   0.0987493716319   
      0.0987639185428   0.0987493716319   0.0987059115391   0.0986340756999   0.0985347450792   
      0.0984091226835   0.0982587047444   0.0980852457491   0.0978907187108   0.0976772722085   
      0.0974471857793   0.0972028252175   0.0969465992325   0.0966809187444   0.0964081598806   
      0.09613063148   0.0958505476491   0.0955700056449   0.0952909691165   0.0950152565185   
      0.0947445343338   0.094480314607   0.0942239562023   0.0939766691525   0.0937395214567   
      0.0935134477055   0.0932992589622   0.0930976533857   0.0929092271601   0.0927344853656   
      0.0925738525029   0.092427682453   0.0922962677114   0.0921798477929   0.0920786167426   
      0.091992729721   0.091922308658   0.0918674469841   0.0918282134574   0.0918046551089   
      0.106203720112   0.106216516489   0.106254892463   0.106318807856   0.106408193311   
      0.106522946696   0.106662928011   0.10682795279   0.10701778394   0.107232122014   
      0.10747059389   0.107732739884   0.108017999369   0.108325695002   0.108655015773   
      0.109004999148   0.109374512705   0.109762235759   0.110166641616   0.110585981197   
      0.111018268914   0.111461271742   0.111912502545   0.11236921868   0.112828426913   
      0.113286895574   0.113741174689   0.11418762463   0.114622453483   0.115041762984   
      0.11544160248   0.11581802994   0.116167178619   0.116485327629   0.1167689743   
      0.117014906036   0.117220269189   0.117382632505   0.117500042764   0.117571070509   
      0.117594844064   0.117571070509   0.117500042764   0.117382632505   0.117220269189   
      0.117014906036   0.1167689743   0.116485327629   0.116167178619   0.11581802994   
      0.11544160248   0.115041762984   0.114622453483   0.11418762463   0.113741174689   
      0.113286895574   0.112828426913   0.11236921868   0.111912502545   0.111461271742   
      0.111018268914   0.110585981197   0.110166641616   0.109762235759   0.109374512705   
      0.109004999148   0.108655015773   0.108325695002   0.108017999369   0.107732739884   
      0.10747059389   0.107232122014   0.10701778394   0.10682795279   0.106662928011   
      0.106522946696   0.106408193311   0.106318807856   0.106254892463   0.106216516489   
      0.118101480758   0.118119619754   0.118174018612   0.118264621879   0.118391333574   
      0.118554011824   0.118752461293   0.118986423381   0.119255564129   0.119559459832   
      0.11989758035   0.120269270174   0.120673727374   0.121109980646   0.121576864766   
      0.122072994929   0.122596740576   0.123146199491   0.123719173123   0.124313144247   
      0.124925258247   0.125552309373   0.12619073345   0.126836608438   0.127485664209   
      0.128133302688   0.128774629243   0.129404495834   0.130017555976   0.130608331058   
      0.13117128703   0.131700919897   0.132191847981   0.132638908454   0.133037255286   
      0.133382455572   0.133670581071   0.133898291876   0.134062909331   0.134162475621   
      0.134195797936   0.134162475621   0.134062909331   0.133898291876   0.133670581071   
      0.133382455572   0.133037255286   0.132638908454   0.132191847981   0.131700919897   
      0.13117128703   0.130608331058   0.130017555976   0.129404495834   0.128774629243   
      0.128133302688   0.127485664209   0.126836608438   0.12619073345   0.125552309373   
      0.124925258247   0.124313144247   0.123719173123   0.123146199491   0.122596740576   
      0.122072994929   0.121576864766   0.121109980646   0.120673727374   0.120269270174   
      0.11989758035   0.119559459832   0.119255564129   0.118986423381   0.118752461293   
      0.118554011824   0.118391333574   0.118264621879   0.118174018612   0.118119619754   
      0.129243816366   0.129267321482   0.12933781259   0.129455215529   0.129619401877   
      0.129830181688   0.130087293274   0.130390389977   0.130739023912   0.131132626674   
      0.13157048705   0.132051725857   0.132575268119   0.133139812925   0.133743801477   
      0.13438538399   0.135062386362   0.135772277687   0.136512139938   0.137278641334   
      0.138068015061   0.138876045113   0.139698061047   0.140528943371   0.141363141084   
      0.142194702585   0.14301732074   0.143824392387   0.144609091937   0.145364458107   
      0.146083492183   0.146759265578   0.147385033979   0.147954354933   0.148461205474   
      0.148900096269   0.149266178822   0.149555342421   0.149764297861   0.149890645358   
      0.149932924595   0.149890645358   0.149764297861   0.149555342421   0.149266178822   
      0.148900096269   0.148461205474   0.147954354933   0.147385033979   0.146759265578   
      0.146083492183   0.145364458107   0.144609091937   0.143824392387   0.14301732074   
      0.142194702585   0.141363141084   0.140528943371   0.139698061047   0.138876045113   
      0.138068015061   0.137278641334   0.136512139938   0.135772277687   0.135062386362   
      0.13438538399   0.133743801477   0.133139812925   0.132575268119   0.132051725857   
      0.13157048705   0.131132626674   0.130739023912   0.130390389977   0.130087293274   
      0.129830181688   0.129619401877   0.129455215529   0.12933781259   0.129267321482   
      0.138878328105   0.138906515363   0.138991045998   0.139131824802   0.139328687085   
      0.139581389644   0.139889598063   0.140252870316   0.140670636686   0.141142176002   
      0.141666588331   0.142242764305   0.142869351435   0.143544717905   0.144266914556   
      0.145033635991   0.145842181964   0.146689420498   0.14757175438   0.148485092902   
      0.149424830861   0.150385836866   0.151362452966   0.152348507431   0.153337342172   
      0.154321855876   0.155294563319   0.156247670688   0.157173166002   0.158062923036   
      0.158908816464   0.159702845371   0.160437261858   0.161104701192   0.161698309828   
      0.16221186774   0.162639901663   0.162977786205   0.16322183019   0.163369346057   
      0.163418700632   0.163369346057   0.16322183019   0.162977786205   0.162639901663   
      0.16221186774   0.161698309828   0.161104701192   0.160437261858   0.159702845371   
      0.158908816464   0.158062923036   0.157173166002   0.156247670688   0.155294563319   
      0.154321855876   0.153337342172   0.152348507431   0.151362452966   0.150385836866   
      0.149424830861   0.148485092902   0.14757175438   0.146689420498   0.145842181964   
      0.145033635991   0.144266914556   0.143544717905   0.142869351435   0.142242764305   
      0.141666588331   0.141142176002   0.140670636686   0.140252870316   0.139889598063   
      0.139581389644   0.139328687085   0.139131824802   0.138991045998   0.138906515363   
      0.146457202982   0.14648901508   0.146584413476   0.146743282372   0.146965421782   
      0.147250537028   0.147598223994   0.148007950145   0.148479031329   0.149010604447   
      0.14960159617   0.150250688001   0.15095627815   0.151716440893   0.152528884301   
      0.153390907528   0.154299359065   0.155250597695   0.156240458079   0.157264223122   
      0.158316605341   0.159391739486   0.160483188467   0.161583964406   0.162686566123   
      0.163783033831   0.164865021072   0.165923883198   0.166950780886   0.167936796463   
      0.168873060188   0.169750883134   0.170561893053   0.171298169468   0.171952374374   
      0.172517875137   0.172988856597   0.173360419814   0.173628665392   0.173790759781   
      0.173844983394   0.173790759781   0.173628665392   0.173360419814   0.172988856597   
      0.172517875137   0.171952374374   0.171298169468   0.170561893053   0.169750883134   
      0.168873060188   0.167936796463   0.166950780886   0.165923883198   0.164865021072   
      0.163783033831   0.162686566123   0.161583964406   0.160483188467   0.159391739486   
      0.158316605341   0.157264223122   0.156240458079   0.155250597695   0.154299359065   
      0.153390907528   0.152528884301   0.151716440893   0.15095627815   0.150250688001   
      0.14960159617   0.149010604447   0.148479031329   0.148007950145   0.147598223994   
      0.147250537028   0.146965421782   0.146743282372   0.146584413476   0.14648901508   
      0.151619588165   0.151653816438   0.151756457919   0.151927380296   0.152166355356   
      0.152473047453   0.152846997326   0.153287601319   0.153794086028   0.154365478536   
      0.155000572456   0.155697890174   0.156455641873   0.157271682125   0.158143465118   
      0.159067999861   0.160041806994   0.161060879124   0.162120646814   0.16321595256   
      0.164341035091   0.165489526322   0.16665446301   0.167828314793   0.169003029763   
      0.170170097993   0.17132063269   0.172445467804   0.173535270109   0.174580663067   
      0.175572359192   0.176501297283   0.177358780684   0.17813661284   0.178827226625   
      0.179423804333   0.179920385752   0.180311962227   0.180594555206   0.180765278168   
      0.18082238125   0.180765278168   0.180594555206   0.180311962227   0.179920385752   
      0.179423804333   0.178827226625   0.17813661284   0.177358780684   0.176501297283   
      0.175572359192   0.174580663067   0.173535270109   0.172445467804   0.17132063269   
      0.170170097993   0.169003029763   0.167828314793   0.16665446301   0.165489526322   
      0.164341035091   0.16321595256   0.162120646814   0.161060879124   0.160041806994   
      0.159067999861   0.158143465118   0.157271682125   0.156455641873   0.155697890174   
      0.155000572456   0.154365478536   0.153794086028   0.153287601319   0.152846997326   
      0.152473047453   0.152166355356   0.151927380296   0.151756457919   0.151653816438   
      0.154219686371   0.154255111486   0.154361340464   0.154538231787   0.154785541549   
      0.155102911381   0.155489851546   0.155945719229   0.156469692111   0.157060737369   
      0.157717576394   0.158438645661   0.159222054377   0.160065539791   0.160966421302   
      0.16192155482   0.162927289094   0.163979426045   0.165073187329   0.166203189529   
      0.167363430394   0.168547288447   0.16974753799   0.17095638112   0.172165497741   
      0.17336611383   0.174549087389   0.175705010647   0.17682432628   0.177897454705   
      0.178914928965   0.179867533419   0.18074644235   0.181543354771   0.182250622013   
      0.18286136519   0.183369580196   0.183770228454   0.184059312194   0.184233933493   
      0.184292336617   0.184233933493   0.184059312194   0.183770228454   0.183369580196   
      0.18286136519   0.182250622013   0.181543354771   0.18074644235   0.179867533419   
      0.178914928965   0.177897454705   0.17682432628   0.175705010647   0.174549087389   
      0.17336611383   0.172165497741   0.17095638112   0.16974753799   0.168547288447   
      0.167363430394   0.166203189529   0.165073187329   0.163979426045   0.162927289094   
      0.16192155482   0.160966421302   0.160065539791   0.159222054377   0.158438645661   
      0.157717576394   0.157060737369   0.156469692111   0.155945719229   0.155489851546   
      0.155102911381   0.154785541549   0.154538231787   0.154361340464   0.154255111486   
      0.154219686371   0.154255111486   0.154361340464   0.154538231787   0.154785541549   
      0.155102911381   0.155489851546   0.155945719229   0.156469692111   0.157060737369   
      0.157717576394   0.158438645661   0.159222054377   0.160065539791   0.160966421302   
      0.16192155482   0.162927289094   0.163979426045   0.165073187329   0.166203189529   
      0.167363430394   0.168547288447   0.16974753799   0.17095638112   0.172165497741   
      0.17336611383   0.174549087389   0.175705010647   0.17682432628   0.177897454705   
      0.178914928965   0.179867533419   0.18074644235   0.181543354771   0.182250622013   
      0.18286136519   0.183369580196   0.183770228454   0.184059312194   0.184233933493   
      0.184292336617   0.184233933493   0.184059312194   0.183770228454   0.183369580196   
      0.18286136519   0.182250622013   0.181543354771   0.18074644235   0.179867533419   
      0.178914928965   0.177897454705   0.17682432628   0.175705010647   0.174549087389   
      0.17336611383   0.172165497741   0.17095638112   0.16974753799   0.168547288447   
      0.167363430394   0.166203189529   0.165073187329   0.163979426045   0.162927289094   
      0.16192155482   0.160966421302   0.160065539791   0.159222054377   0.158438645661   
      0.157717576394   0.157060737369   0.156469692111   0.155945719229   0.155489851546   
      0.155102911381   0.154785541549   0.154538231787   0.154361340464   0.154255111486   
      0.151619588165   0.151653816438   0.151756457919   0.151927380296   0.152166355356   
      0.152473047453   0.152846997326   0.153287601319   0.153794086028   0.154365478536   
      0.155000572456   0.155697890174   0.156455641873   0.157271682125   0.158143465118   
      0.159067999861   0.160041806994   0.161060879124   0.162120646814   0.16321595256   
      0.164341035091   0.165489526322   0.16665446301   0.167828314793   0.169003029763   
      0.170170097993   0.17132063269   0.172445467804   0.173535270109   0.174580663067   
      0.175572359192   0.176501297283   0.177358780684   0.17813661284   0.178827226625   
      0.179423804333   0.179920385752   0.180311962227   0.180594555206   0.180765278168   
      0.18082238125   0.180765278168   0.180594555206   0.180311962227   0.179920385752   
      0.179423804333   0.178827226625   0.17813661284   0.177358780684   0.176501297283   
      0.175572359192   0.174580663067   0.173535270109   0.172445467804   0.17132063269   
      0.170170097993   0.169003029763   0.167828314793   0.16665446301   0.165489526322   
      0.164341035091   0.16321595256   0.162120646814   0.161060879124   0.160041806994   
      0.159067999861   0.158143465118   0.157271682125   0.156455641873   0.155697890174   
      0.155000572456   0.154365478536   0.153794086028   0.153287601319   0.152846997326   
      0.152473047453   0.152166355356   0.151927380296   0.151756457919   0.151653816438   
      0.146457202982   0.14648901508   0.146584413476   0.146743282372   0.146965421782   
      0.147250537028   0.147598223994   0.148007950145   0.148479031329   0.149010604447   
      0.14960159617   0.150250688001   0.15095627815   0.151716440893   0.152528884301   
      0.153390907528   0.154299359065   0.155250597695   0.156240458079   0.157264223122   
      0.158316605341   0.159391739486   0.160483188467   0.161583964406   0.162686566123   
      0.163783033831   0.164865021072   0.165923883198   0.166950780886   0.167936796463   
      0.168873060188   0.169750883134   0.170561893053   0.171298169468   0.171952374374   
      0.172517875137   0.172988856597   0.173360419814   0.173628665392   0.173790759781   
      0.173844983394   0.173790759781   0.173628665392   0.173360419814   0.172988856597   
      0.172517875137   0.171952374374   0.171298169468   0.170561893053   0.169750883134   
      0.168873060188   0.167936796463   0.166950780886   0.165923883198   0.164865021072   
      0.163783033831   0.162686566123   0.161583964406   0.160483188467   0.159391739486   
      0.158316605341   0.157264223122   0.156240458079   0.155250597695   0.154299359065   
      0.153390907528   0.152528884301   0.151716440893   0.15095627815   0.150250688001   
      0.14960159617   0.149010604447   0.148479031329   0.148007950145   0.147598223994   
      0.147250537028   0.146965421782   0.146743282372   0.146584413476   0.14648901508   
      0.138878328105   0.138906515363   0.138991045998   0.139131824802   0.139328687085   
      0.139581389644   0.139889598063   0.140252870316   0.140670636686   0.141142176002   
      0.141666588331   0.142242764305   0.142869351435   0.143544717905   0.144266914556   
      0.145033635991   0.145842181964   0.146689420498   0.14757175438   0.148485092902   
      0.149424830861   0.150385836866   0.151362452966   0.152348507431   0.153337342172   
      0.154321855876   0.155294563319   0.156247670688   0.157173166002   0.158062923036   
      0.158908816464   0.159702845371   0.160437261858   0.161104701192   0.161698309828   
      0.16221186774   0.162639901663   0.162977786205   0.16322183019   0.163369346057   
      0.163418700632   0.163369346057   0.16322183019   0.162977786205   0.162639901663   
      0.16221186774   0.161698309828   0.161104701192   0.160437261858   0.159702845371   
      0.158908816464   0.158062923036   0.157173166002   0.156247670688   0.155294563319   
      0.154321855876   0.153337342172   0.152348507431   0.151362452966   0.150385836866   
      0.149424830861   0.148485092902   0.14757175438   0.146689420498   0.145842181964   
      0.145033635991   0.144266914556   0.143544717905   0.142869351435   0.142242764305   
      0.141666588331   0.141142176002   0.140670636686   0.140252870316   0.139889598063   
      0.139581389644   0.139328687085   0.139131824802   0.138991045998   0.138906515363   
      0.129243816366   0.129267321482   0.12933781259   0.129455215529   0.129619401877   
      0.129830181688   0.130087293274   0.130390389977   0.130739023912   0.131132626674   
      0.13157048705   0.132051725857   0.132575268119   0.133139812925   0.133743801477   
      0.13438538399   0.135062386362   0.135772277687   0.136512139938   0.137278641334   
      0.138068015061   0.138876045113   0.139698061047   0.140528943371   0.141363141084   
      0.142194702585   0.14301732074   0.143824392387   0.144609091937   0.145364458107   
      0.146083492183   0.146759265578   0.147385033979   0.147954354933   0.148461205474   
      0.148900096269   0.149266178822   0.149555342421   0.149764297861   0.149890645358   
      0.149932924595   0.149890645358   0.149764297861   0.149555342421   0.149266178822   
      0.148900096269   0.148461205474   0.147954354933   0.147385033979   0.146759265578   
      0.146083492183   0.145364458107   0.144609091937   0.143824392387   0.14301732074   
      0.142194702585   0.141363141084   0.140528943371   0.139698061047   0.138876045113   
      0.138068015061   0.137278641334   0.136512139938   0.135772277687   0.135062386362   
      0.13438538399   0.133743801477   0.133139812925   0.132575268119   0.132051725857   
      0.13157048705   0.131132626674   0.130739023912   0.130390389977   0.130087293274   