<?xml version="1.0"?>
<VTKFile type="UnstructuredGrid">
  <UnstructuredGrid>
    <Piece NumberOfCells="324" NumberOfPoints="500">
      <Points>
        <DataArray Name="Coordinates" NumberOfComponents="3" format="ascii" type="Float64">
          0 0 2229.61206055
          0 0 2238.75610352
          0 0 2247.89990234
          0 0 2263.13989258
          0 0 2278.37988281
          89.3978424072 0 2229.61206055
          89.3978424072 0 2238.75610352
          89.3978424072 0 2247.89990234
          89.3978424072 0 2263.13989258
          89.3978424072 0 2278.37988281
          178.795684814 0 2229.61206055
          178.795684814 0 2238.75610352
          178.795684814 0 2247.89990234
          178.795684814 0 2263.13989258
          178.795684814 0 2278.37988281
          268.193511963 0 2229.61206055
          268.193511963 0 2238.75610352
          268.193511963 0 2247.89990234
          268.193511963 0 2263.13989258
          268.193511963 0 2278.37988281
          357.591369629 0 2229.61206055
          357.591369629 0 2238.75610352
          357.591369629 0 2247.89990234
          357.591369629 0 2263.13989258
          357.591369629 0 2278.37988281
          446.989196777 0 2229.61206055
          446.989196777 0 2238.75610352
          446.989196777 0 2247.89990234
          446.989196777 0 2263.13989258
          446.989196777 0 2278.37988281
          536.387023926 0 2229.61206055
          536.387023926 0 2238.75610352
          536.387023926 0 2247.89990234
          536.387023926 0 2263.13989258
          536.387023926 0 2278.37988281
          625.784851074 0 2229.61206055
          625.784851074 0 2238.75610352
          625.784851074 0 2247.89990234
          625.784851074 0 2263.13989258
          625.784851074 0 2278.37988281
          715.182739258 0 2229.61206055
          715.182739258 0 2238.75610352
          715.182739258 0 2247.89990234
          715.182739258 0 2263.13989258
          715.182739258 0 2278.37988281
          804.580566406 0 2229.61206055
          804.580566406 0 2238.75610352
          804.580566406 0 2247.89990234
          804.580566406 0 2263.13989258
          804.580566406 0 2278.37988281
          0 89.3978424072 2229.61206055
          0 89.3978424072 2238.75610352
          0 89.3978424072 2247.89990234
          0 89.3978424072 2263.13989258
          0 89.3978424072 2278.37988281
          89.3978424072 89.3978424072 2229.61206055
          89.3978424072 89.3978424072 2238.75610352
          89.3978424072 89.3978424072 2247.89990234
          89.3978424072 89.3978424072 2263.13989258
          89.3978424072 89.3978424072 2278.37988281
          178.795684814 89.3978424072 2229.61206055
          178.795684814 89.3978424072 2238.75610352
          178.795684814 89.3978424072 2247.89990234
          178.795684814 89.3978424072 2263.13989258
          178.795684814 89.3978424072 2278.37988281
          268.193511963 89.3978424072 2229.61206055
          268.193511963 89.3978424072 2238.75610352
          268.193511963 89.3978424072 2247.89990234
          268.193511963 89.3978424072 2263.13989258
          268.193511963 89.3978424072 2278.37988281
          357.591369629 89.3978424072 2229.61206055
          357.591369629 89.3978424072 2238.75610352
          357.591369629 89.3978424072 2247.89990234
          357.591369629 89.3978424072 2263.13989258
          357.591369629 89.3978424072 2278.37988281
          446.989196777 89.3978424072 2229.61206055
          446.989196777 89.3978424072 2238.75610352
          446.989196777 89.3978424072 2247.89990234
          446.989196777 89.3978424072 2263.13989258
          446.989196777 89.3978424072 2278.37988281
          536.387023926 89.3978424072 2229.61206055
          536.387023926 89.3978424072 2238.75610352
          536.387023926 89.3978424072 2247.89990234
          536.387023926 89.3978424072 2263.13989258
          536.387023926 89.3978424072 2278.37988281
          625.784851074 89.3978424072 2229.61206055
          625.784851074 89.3978424072 2238.75610352
          625.784851074 89.3978424072 2247.89990234
          625.784851074 89.3978424072 2263.13989258
          625.784851074 89.3978424072 2278.37988281
          715.182739258 89.3978424072 2229.61206055
          715.182739258 89.3978424072 2238.75610352
          715.182739258 89.3978424072 2247.89990234
          715.182739258 89.3978424072 2263.13989258
          715.182739258 89.3978424072 2278.37988281
          804.580566406 89.3978424072 2229.61206055
          804.580566406 89.3978424072 2238.75610352
          804.580566406 89.3978424072 2247.89990234
          804.580566406 89.3978424072 2263.13989258
          804.580566406 89.3978424072 2278.37988281
          0 178.795684814 2229.61206055
          0 178.795684814 2238.75610352
          0 178.795684814 2247.89990234
          0 178.795684814 2263.13989258
          0 178.795684814 2278.37988281
          89.3978424072 178.795684814 2229.61206055
          89.3978424072 178.795684814 2238.75610352
          89.3978424072 178.795684814 2247.89990234
          89.3978424072 178.795684814 2263.13989258
          89.3978424072 178.795684814 2278.37988281
          178.795684814 178.795684814 2229.61206055
          178.795684814 178.795684814 2238.75610352
          178.795684814 178.795684814 2247.89990234
          178.795684814 178.795684814 2263.13989258
          178.795684814 178.795684814 2278.37988281
          268.193511963 178.795684814 2229.61206055
          268.193511963 178.795684814 2238.75610352
          268.193511963 178.795684814 2247.89990234
          268.193511963 178.795684814 2263.13989258
          268.193511963 178.795684814 2278.37988281
          357.591369629 178.795684814 2229.61206055
          357.591369629 178.795684814 2238.75610352
          357.591369629 178.795684814 2247.89990234
          357.591369629 178.795684814 2263.13989258
          357.591369629 178.795684814 2278.37988281
          446.989196777 178.795684814 2229.61206055
          446.989196777 178.795684814 2238.75610352
          446.989196777 178.795684814 2247.89990234
          446.989196777 178.795684814 2263.13989258
          446.989196777 178.795684814 2278.37988281
          536.387023926 178.795684814 2229.61206055
          536.387023926 178.795684814 2238.75610352
          536.387023926 178.795684814 2247.89990234
          536.387023926 178.795684814 2263.13989258
          536.387023926 178.795684814 2278.37988281
          625.784851074 178.795684814 2229.61206055
          625.784851074 178.795684814 2238.75610352
          625.784851074 178.795684814 2247.89990234
          625.784851074 178.795684814 2263.13989258
          625.784851074 178.795684814 2278.37988281
          715.182739258 178.795684814 2229.61206055
          715.182739258 178.795684814 2238.75610352
          715.182739258 178.795684814 2247.89990234
          715.182739258 178.795684814 2263.13989258
          715.182739258 178.795684814 2278.37988281
          804.580566406 178.795684814 2229.61206055
          804.580566406 178.795684814 2238.75610352
          804.580566406 178.795684814 2247.89990234
          804.580566406 178.795684814 2263.13989258
          804.580566406 178.795684814 2278.37988281
          0 268.193511963 2229.61206055
          0 268.193511963 2238.75610352
          0 268.193511963 2247.89990234
          0 268.193511963 2263.13989258
          0 268.193511963 2278.37988281
          89.3978424072 268.193511963 2229.61206055
          89.3978424072 268.193511963 2238.75610352
          89.3978424072 268.193511963 2247.89990234
          89.3978424072 268.193511963 2263.13989258
          89.3978424072 268.193511963 2278.37988281
          178.795684814 268.193511963 2229.61206055
          178.795684814 268.193511963 2238.75610352
          178.795684814 268.193511963 2247.89990234
          178.795684814 268.193511963 2263.13989258
          178.795684814 268.193511963 2278.37988281
          268.193511963 268.193511963 2229.61206055
          268.193511963 268.193511963 2238.75610352
          268.193511963 268.193511963 2247.89990234
          268.193511963 268.193511963 2263.13989258
          268.193511963 268.193511963 2278.37988281
          357.591369629 268.193511963 2229.61206055
          357.591369629 268.193511963 2238.75610352
          357.591369629 268.193511963 2247.89990234
          357.591369629 268.193511963 2263.13989258
          357.591369629 268.193511963 2278.37988281
          446.989196777 268.193511963 2229.61206055
          446.989196777 268.193511963 2238.75610352
          446.989196777 268.193511963 2247.89990234
          446.989196777 268.193511963 2263.13989258
          446.989196777 268.193511963 2278.37988281
          536.387023926 268.193511963 2229.61206055
          536.387023926 268.193511963 2238.75610352
          536.387023926 268.193511963 2247.89990234
          536.387023926 268.193511963 2263.13989258
          536.387023926 268.193511963 2278.37988281
          625.784851074 268.193511963 2229.61206055
          625.784851074 268.193511963 2238.75610352
          625.784851074 268.193511963 2247.89990234
          625.784851074 268.193511963 2263.13989258
          625.784851074 268.193511963 2278.37988281
          715.182739258 268.193511963 2229.61206055
          715.182739258 268.193511963 2238.75610352
          715.182739258 268.193511963 2247.89990234
          715.182739258 268.193511963 2263.13989258
          715.182739258 268.193511963 2278.37988281
          804.580566406 268.193511963 2229.61206055
          804.580566406 268.193511963 2238.75610352
          804.580566406 268.193511963 2247.89990234
          804.580566406 268.193511963 2263.13989258
          804.580566406 268.193511963 2278.37988281
          0 357.591369629 2229.61206055
          0 357.591369629 2238.75610352
          0 357.591369629 2247.89990234
          0 357.591369629 2263.13989258
          0 357.591369629 2278.37988281
[...]
      <CellData Scalars="saturation">
        <DataArray Name="pressure" NumberOfComponents="1" format="ascii" type="Float64">
          24525520.2282 24435475.4667 24398864.9962 24381935.1636 24373098.1187 
          24368098.5582 24365190.4561 24363584.1611 24362874.9003 24435475.4667 
          24408931.5335 24389904.1659 24378236.3969 24371117.0554 24366688.0289 
          24363977.3691 24362472.5231 24361820.5155 24398864.9962 24389904.1659 
          24380591.2506 24373256.6728 24367865.7503 24364022.1266 24361504.4756 
          24360171.8203 24359651.4083 24381935.1636 24378236.3969 24373256.6728 
          24368328.599 24363889.8495 24360168.6002 24357582.9711 24356525.9599 
          24356293.2298 24373098.1187 24371117.0554 24367865.7503 24363889.8495 
          24359484.6982 24355081.8444 24351833.5744 24351397.8252 24351821.2356 
          24368098.5582 24366688.0289 24364022.1266 24360168.6002 24355081.8444 
          24349030.2714 24344001.4427 24345135.2989 24346849.9515 24365190.4561 
          24363977.3691 24361504.4756 24357582.9711 24351833.5744 24344001.4427 
          24336093.1687 24339945.8895 24343154.4548 24363584.1611 24362472.5231 
          24360171.8203 24356525.9599 24351397.8252 24345135.2989 24339945.8895 
          24341138.325 24342970.7442 24362874.9003 24361820.5155 24359651.4083 
          24356293.2298 24351821.2356 24346849.9515 24343154.4548 24342970.7442 
          24343779.739 24531243.9009 24461902.0946 24429072.9918 24413215.925 
          24404768.4358 24399929.3325 24397093.4177 24395521.4995 24394826.6294 
          24461902.0946 24438394.345 24420757.9597 24409694.819 24402844.0937 
          24398537.7492 24395886.2655 24394413.1797 24393775.9127 24429072.9918 
          24420757.9597 24411942.6271 24404898.2909 24399658.4729 24395887.4424 
          24393406.6119 24392106.579 24391606.0105 24413215.925 24409694.819 
          24404898.2909 24400095.5485 24395717.4755 24392002.3259 24389405.4985 
          24388408.0521 24388221.9021 24404768.4358 24402844.0937 24399658.4729 
          24395717.4755 24391279.4168 24386734.8552 24383288.3069 24383076.1088 
          24383659.3589 24399929.3325 24398537.7492 24395887.4424 24392002.3259 
          24386734.8552 24380116.7819 24374058.5678 24376225.2374 24378464.2771 
          24397093.4177 24395886.2655 24393406.6119 24389405.4985 24383288.3069 
          24374058.5678 24362103.5133 24369993.1275 24374513.4876 24395521.4995 
          24394413.1797 24392106.579 24388408.0521 24383076.1088 24376225.2374 
          24369993.1275 24372225.1984 24374594.3523 24394826.6294 24393775.9127 
          24391606.0105 24388221.9021 24383659.3589 24378464.2771 24374513.4876 
          24374594.3523 24375601.9664 24522649.7789 24489452.337 24468422.9519 
          24456315.8796 24449167.53 24444802.8463 24442149.0824 24440653.3069 
          24439988.5456 24489452.337 24475109.2091 24462362.5895 24453398.4483 
          24447400.2714 24443427.9667 24440910.1729 24439506.4254 24438903.5566 
          24468422.9519 24462362.5895 24455283.7668 24449176.6543 24444351.1687 
          24440719.3719 24438282.1359 24437063.365 24436626.0152 24456315.8796 
          24453398.4483 24449176.6543 24444695.5927 24440375.2727 24436510.4705 
          24433742.1633 24432957.8029 24432965.7066 24449167.53 24447400.2714 
          24444351.1687 24440375.2727 24435582.1002 24430203.2456 24425701.0222 
          24426477.6014 24427795.1935 24444802.8463 24443427.9667 24440719.3719 
          24436510.4705 24430203.2456 24420749.7281 24409795.4875 24416697.8177 
          24421360.8595 24442149.0824 24440910.1729 24438282.1359 24433742.1633 
          24425701.0222 24409795.4875 24375291.1593 24405506.7897 24416081.2623 
          24440653.3069 24439506.4254 24437063.365 24432957.8029 24426477.6014 
          24416697.8177 24405506.7897 24412505.8568 24417333.2245 24439988.5456 
          24438903.5566 24436626.0152 24432965.7066 24427795.1935 24421360.8595 
          24416081.2623 24417333.2245 24419262.2445 24545291.0401 24531947.5539 
          24518933.5788 24509443.2681 24502980.0092 24498696.8354 24495977.2595 
          24494415.4266 24493717.2276 24531947.5539 24523801.3439 24514507.1368 
          24506877.5769 24501206.8307 24497202.8298 24494579.9297 24493111.8328 
          24492486.3448 24518933.5788 24514507.1368 24508558.0582 24502857.1701 
          24498002.152 24494160.4855 24491528.7183 24490276.3796 24489863.5961 
          24509443.2681 24506877.5769 24502857.1701 24498279.6341 24493592.2323 
          24489185.1693 24485970.0218 24485328.2964 24485536.0387 24502980.0092 
          24501206.8307 24498002.152 24493592.2323 24487944.661 24481207.7499 
          24475363.8966 24477111.4094 24479178.0093 24498696.8354 24497202.8298 
          24494160.4855 24489185.1693 24481207.7499 24468397.9586 24451317.9676 
          24463874.3927 24471139.1461 24495977.2595 24494579.9297 24491528.7183 
          24485970.0218 24475363.8966 24451317.9676 24381317.17 24446483.2945 
          24464235.2221 24494415.4266 24493111.8328 24490276.3796 24485328.2964 
          24477111.4094 24463874.3927 24446483.2945 24459173.2248 24466655.0831 
          24493717.2276 24492486.3448 24489863.5961 24485536.0387 24479178.0093 
          24471139.1461 24464235.2221 24466655.0831 24469541.431 
        </DataArray>
        <DataArray Name="saturation" NumberOfComponents="3" format="ascii" type="Float64">
          0.164361788772 0 0.835638211228 
          0.164377811362 1.11022302463e-16 0.835622188638 
          0.164383925046 3.33066907388e-16 0.835616074954 
          0.164386745691 0 0.835613254309 
          0.164388217977 0 0.835611782023 
          0.164389050888 1.11022302463e-16 0.835610949112 
          0.164389535357 0 0.835610464643 
          0.164389802951 0 0.835610197049 
          0.164389921107 1.11022302463e-16 0.835610078893 
          0.164377811362 1.11022302463e-16 0.835622188638 
          0.164382248209 1.11022302463e-16 0.835617751791 
          0.164385417986 1.11022302463e-16 0.835614582014 
          0.164387361929 1.11022302463e-16 0.835612638071 
          0.164388548011 0 0.835611451989 
          0.164389285862 3.33066907388e-16 0.835610714138 
          0.164389737433 2.22044604925e-16 0.835610262567 
          0.164389988127 2.22044604925e-16 0.835610011873 
          0.164390096746 0 0.835609903254 
          0.164383925046 3.33066907388e-16 0.835616074954 
          0.164385417986 1.11022302463e-16 0.835614582014 
          0.164386969601 1.11022302463e-16 0.835613030399 
          0.164388191548 1.11022302463e-16 0.835611808452 
          0.164389089644 2.22044604925e-16 0.835610910356 
          0.164389729949 0 0.835610270051 
          0.164390149356 2.22044604925e-16 0.835609850644 
          0.164390371368 0 0.835609628632 
          0.16439045807 0 0.83560954193 
          0.164386745691 0 0.835613254309 
          0.164387361929 1.11022302463e-16 0.835612638071 
          0.164388191548 1.11022302463e-16 0.835611808452 
          0.164389012527 1.11022302463e-16 0.835610987473 
          0.164389751958 0 0.835610248042 
          0.164390371837 2.22044604925e-16 0.835609628163 
          0.164390802538 0 0.835609197462 
          0.164390978654 0 0.835609021346 
          0.164391017453 1.11022302463e-16 0.835608982547 
          0.164388217977 0 0.835611782023 
          0.164388548011 0 0.835611451989 
          0.164389089644 2.22044604925e-16 0.835610910356 
          0.164389751958 0 0.835610248042 
          0.164390485734 0 0.835609514266 
          0.164391219058 0 0.835608780942 
          0.16439176002 1.11022302463e-16 0.83560823998 
          0.164391832758 0 0.835608167242 
          0.164391762335 0 0.835608237665 
          0.164389050888 1.11022302463e-16 0.835610949112 
          0.164389285862 3.33066907388e-16 0.835610714138 
          0.164389729949 0 0.835610270051 
          0.164390371837 2.22044604925e-16 0.835609628163 
          0.164391219058 0 0.835608780942 
          0.164392226748 0 0.835607773252 
          0.164393064097 1.11022302463e-16 0.835606935903 
          0.164392875582 0 0.835607124418 
          0.164392590306 0 0.835607409694 
          0.164389535357 0 0.835610464643 
          0.164389737433 2.22044604925e-16 0.835610262567 
          0.164390149356 2.22044604925e-16 0.835609850644 
          0.164390802538 0 0.835609197462 
          0.16439176002 1.11022302463e-16 0.83560823998 
          0.164393064097 1.11022302463e-16 0.835606935903 
          0.164394381439 0 0.835605618561 
          0.16439373969 0 0.83560626031 
          0.164393205747 0 0.835606794253 
          0.164389802951 0 0.835610197049 
          0.164389988127 2.22044604925e-16 0.835610011873 
          0.164390371368 0 0.835609628632 
          0.164390978654 0 0.835609021346 
          0.164391832758 0 0.835608167242 
          0.164392875582 0 0.835607124418 
          0.16439373969 0 0.83560626031 
          0.164393541422 0 0.835606458578 
          0.164393236598 1.11022302463e-16 0.835606763402 
          0.164389921107 1.11022302463e-16 0.835610078893 
          0.164390096746 0 0.835609903254 
          0.16439045807 0 0.83560954193 
          0.164391017453 1.11022302463e-16 0.835608982547 
          0.164391762335 0 0.835608237665 
          0.164392590306 0 0.835607409694 
          0.164393205747 0 0.835606794253 
          0.164393236598 1.11022302463e-16 0.835606763402 
          0.164393101974 0 0.835606898026 
          0.182452973139 1.11022302463e-16 0.817547026861 
          0.182467146006 0 0.817532853994 
          0.182473422482 2.22044604925e-16 0.817526577518 
          0.182476663889 0 0.817523336111 
          0.182478337569 0 0.817521662431 
          0.182479272061 0 0.817520727939 
          0.182479811113 0 0.817520188887 
          0.182480107678 0 0.817519892322 
          0.182480238458 0 0.817519761542 
          0.182467146006 0 0.817532853994 
          0.182471661822 0 0.817528338178 
          0.182475139366 0 0.817524860634 
          0.182477367155 2.22044604925e-16 0.817522632845 
          0.182478706355 2.22044604925e-16 0.817521293645 
          0.182479530056 0 0.817520469944 
          0.182480030767 1.11022302463e-16 0.817519969233 
          0.182480308507 0 0.817519691493 
          0.182480429054 0 0.817519570946 
          0.182473422482 2.22044604925e-16 0.817526577518 
          0.182475139366 0 0.817524860634 
          0.18247692032 0 0.81752307968 
          0.182478302812 2.22044604925e-16 0.817521697188 
          0.182479305771 1.11022302463e-16 0.817520694229 
          0.182480013331 0 0.817519986669 
          0.182480474505 0 0.817519525495 
          0.18248072142 2.22044604925e-16 0.81751927858 
          0.18248081936 0 0.81751918064 
          0.182476663889 0 0.817523336111 
          0.182477367155 2.22044604925e-16 0.817522632845 
          0.182478302812 2.22044604925e-16 0.817521697188 
          0.1824792169 0 0.8175207831 
          0.18248002904 0 0.81751997096 
          0.182480700372 0 0.817519299628 
          0.182481163608 1.11022302463e-16 0.817518836392 
          0.182481366596 0 0.817518633404 
          0.182481418347 0 0.817518581653 
          0.182478337569 0 0.817521662431 
          0.182478706355 2.22044604925e-16 0.817521293645 
          0.182479305771 1.11022302463e-16 0.817520694229 
          0.18248002904 0 0.81751997096 
          0.182480815176 1.11022302463e-16 0.817519184824 
          0.182481577893 0 0.817518422107 
          0.182482118733 1.11022302463e-16 0.817517881267 
          0.182482246328 1.11022302463e-16 0.817517753672 
          0.182482204654 0 0.817517795346 
          0.182479272061 0 0.817520727939 
          0.182479530056 0 0.817520469944 
          0.182480013331 0 0.817519986669 
          0.182480700372 0 0.817519299628 
          0.182481577893 0 0.817518422107 
          0.182482544089 0 0.817517455911 
          0.182483516196 0 0.817516483804 
          0.182483247149 0 0.817516752851 
          0.182483051155 1.11022302463e-16 0.817516948845 
          0.182479811113 0 0.817520188887 
          0.182480030767 1.11022302463e-16 0.817519969233 
          0.182480474505 0 0.817519525495 
          0.182481163608 1.11022302463e-16 0.817518836392 
          0.182482118733 1.11022302463e-16 0.817517881267 
          0.182483516196 0 0.817516483804 
          0.182485447876 3.33066907388e-16 0.817514552124 
          0.18248426223 2.22044604925e-16 0.81751573777 
          0.182483660395 0 0.817516339605 
          0.182480107678 0 0.817519892322 
          0.182480308507 0 0.817519691493 
          0.18248072142 2.22044604925e-16 0.81751927858 
          0.182481366596 0 0.817518633404 
          0.182482246328 1.11022302463e-16 0.817517753672 
          0.182483247149 0 0.817516752851 
          0.18248426223 1.11022302463e-16 0.81751573777 
          0.182483918507 0 0.817516081493 
          0.18248375101 1.11022302463e-16 0.81751624899 
          0.182480238458 0 0.817519761542 
          0.182480429054 0 0.817519570946 
          0.18248081936 0 0.81751918064 
          0.182481418347 0 0.817518581653 
          0.182482204654 0 0.817517795346 
          0.182483051155 1.11022302463e-16 0.817516948845 
          0.182483660395 0 0.817516339605 
          0.18248375101 1.11022302463e-16 0.81751624899 
          0.182483648068 0 0.817516351932 
          0.213465718237 1.11022302463e-16 0.786534281763 
          0.213474442173 1.11022302463e-16 0.786525557827 
          0.213480335393 2.22044604925e-16 0.786519664607 
          0.213483759258 0 0.786516240742 
          0.213485487363 3.33066907388e-16 0.786514512637 
          0.213486429672 0 0.786513570328 
          0.213486963947 2.22044604925e-16 0.786513036053 
          0.213487255383 0 0.786512744617 
          0.213487383538 1.11022302463e-16 0.786512616462 
          0.213474442173 1.11022302463e-16 0.786525557827 
          0.213478220733 0 0.786521779267 
          0.213482162326 0 0.786517837674 
          0.21348448871 0 0.78651551129 
          0.213485855858 1.11022302463e-16 0.786514144142 
          0.213486677978 0 0.786513322022 
          0.213487170581 1.11022302463e-16 0.786512829419 
          0.213487443298 0 0.786512556702 
          0.213487562104 0 0.786512437896 
          0.213480335393 2.22044604925e-16 0.786519664607 
          0.213482162326 0 0.786517837674 
          0.213484024842 1.11022302463e-16 0.786515975158 
          0.213485441227 1.11022302463e-16 0.786514558773 
          0.213486442927 1.11022302463e-16 0.786513557073 
          0.213487133959 0 0.786512866041 
          0.213487579709 1.11022302463e-16 0.786512420291 
          0.213487823964 0 0.786512176036 
          0.213487923884 0 0.786512076116 
          0.213483759258 0 0.786516240742 
          0.21348448871 0 0.78651551129 
          0.213485441227 1.11022302463e-16 0.786514558773 
          0.21348634829 0 0.78651365171 
          0.213487130979 1.11022302463e-16 0.786512869021 
          0.213487759472 2.22044604925e-16 0.786512240528 
          0.213488190077 0 0.786511809923 
          0.213488402313 2.22044604925e-16 0.786511597687 
          0.213488467629 0 0.786511532371 
          0.213485487363 3.33066907388e-16 0.786514512637 
          0.213485855858 1.11022302463e-16 0.786514144142 
          0.213486442927 1.11022302463e-16 0.786513557073 
          0.213487130979 1.11022302463e-16 0.786512869021 
          0.213487849494 1.11022302463e-16 0.786512150506 
          0.213488524001 0 0.786511475999 
          0.213489036421 0 0.786510963579 
          0.21348918581 1.11022302463e-16 0.78651081419 
          0.213489150453 2.22044604925e-16 0.786510849547 
          0.213486429672 0 0.786513570328 
          0.213486677978 0 0.786513322022 
          0.213487133959 0 0.786512866041 
          0.213487759472 2.22044604925e-16 0.786512240528 
          0.213488524001 0 0.786511475999 
          0.213489440255 1.11022302463e-16 0.786510559745 
          0.213491542778 0 0.786508457222 
          0.213490289121 0 0.786509710879 
          0.213489983342 1.11022302463e-16 0.786510016658 
          0.213486963947 2.22044604925e-16 0.786513036053 
          0.213487170581 1.11022302463e-16 0.786512829419 
          0.213487579709 1.11022302463e-16 0.786512420291 
          0.213488190077 0 0.786511809923 
          0.213489036421 0 0.786510963579 
          0.213491542778 0 0.786508457222 
          0.213493161882 0 0.786506838118 
          0.213492431099 1.11022302463e-16 0.786507568901 
          0.213490420012 1.11022302463e-16 0.786509579988 
          0.213487255383 0 0.786512744617 
          0.213487443298 0 0.786512556702 
          0.213487823964 0 0.786512176036 
          0.213488402313 2.22044604925e-16 0.786511597687 
          0.21348918581 1.11022302463e-16 0.78651081419 
          0.213490289121 0 0.786509710879 
          0.213492431099 1.11022302463e-16 0.786507568901 
          0.213491196549 0 0.786508803451 
          0.213490680904 0 0.786509319096 
          0.213487383538 1.11022302463e-16 0.786512616462 
          0.213487562104 0 0.786512437896 
          0.213487923884 0 0.786512076116 
          0.213488467629 0 0.786511532371 
          0.213489150453 2.22044604925e-16 0.786510849547 
          0.213489983342 1.11022302463e-16 0.786510016658 
          0.213490420012 1.11022302463e-16 0.786509579988 
          0.213490680904 0 0.786509319096 
          0.213490584363 0 0.786509415637 
          0.302449099657 1.11022302463e-16 0.697550900343 
          0.302460920802 1.11022302463e-16 0.697539079198 
          0.302466792591 0 0.697533207409 
          0.302469347078 0 0.697530652922 
          0.302471040134 0 0.697528959866 
          0.30247216214 0 0.69752783786 
          0.302472874595 0 0.697527125405 
          0.302473283775 1.11022302463e-16 0.697526716225 
          0.302473466699 0 0.697526533301 
          0.302460920802 1.11022302463e-16 0.697539079198 
          0.302465334345 1.11022302463e-16 0.697534665655 
          0.302468020004 0 0.697531979996 
          0.302470019094 0 0.697529980906 
          0.302471504658 1.11022302463e-16 0.697528495342 
          0.302472553588 0 0.697527446412 
          0.30247324073 1.11022302463e-16 0.69752675927 
          0.302473625352 2.22044604925e-16 0.697526374648 
          0.302473789229 3.33066907388e-16 0.697526210771 
          0.302466792591 0 0.697533207409 
          0.302468020004 0 0.697531979996 
          0.302469578777 1.11022302463e-16 0.697530421223 
          0.302471072376 0 0.697528927624 
          0.302472344333 1.11022302463e-16 0.697527655667 
          0.302473350804 0 0.697526649196 
          0.302474040281 0 0.697525959719 
          0.302474368359 1.11022302463e-16 0.697525631641 
          0.30247447651 1.11022302463e-16 0.69752552349 
          0.302469347078 0 0.697530652922 
          0.302470019094 0 0.697529980906 
          0.302471072376 0 0.697528927624 
          0.302472271727 1.11022302463e-16 0.697527728273 
          0.302473499919 0 0.697526500081 
          0.302474654682 0 0.697525345318 
          0.302475497026 1.11022302463e-16 0.697524502974 
          0.30247566503 0 0.69752433497 
          0.302475610594 0 0.697524389406 
          0.302471040134 0 0.697528959866 
          0.302471504658 1.11022302463e-16 0.697528495342 
          0.302472344333 1.11022302463e-16 0.697527655667 
          0.302473499919 0 0.697526500081 
          0.302474979989 0 0.697525020011 
          0.302476731223 0 0.697523268777 
          0.302478130095 2.22044604925e-16 0.697521869905 
          0.302477767733 1.11022302463e-16 0.697522232267 
          0.302477299982 1.11022302463e-16 0.697522700018 
          0.30247216214 0 0.69752783786 
          0.302472553588 0 0.697527446412 
          0.302473350804 0 0.697526649196 
          0.302474654682 0 0.697525345318 