<?xml version="1.0"?>
<VTKFile type="UnstructuredGrid">
  <UnstructuredGrid>
    <Piece NumberOfCells="324" NumberOfPoints="500">
      <Points>
        <DataArray Name="Coordinates" NumberOfComponents="3" format="ascii" type="Float64">
          0 0 2229.61206055
          0 0 2238.75610352
          0 0 2247.89990234
          0 0 2263.13989258
          0 0 2278.37988281
          89.3978424072 0 2229.61206055
          89.3978424072 0 2238.75610352
          89.3978424072 0 2247.89990234
          89.3978424072 0 2263.13989258
          89.3978424072 0 2278.37988281
          178.795684814 0 2229.61206055
          178.795684814 0 2238.75610352
          178.795684814 0 2247.89990234
          178.795684814 0 2263.13989258
          178.795684814 0 2278.37988281
          268.193511963 0 2229.61206055
          268.193511963 0 2238.75610352
          268.193511963 0 2247.89990234
          268.193511963 0 2263.13989258
          268.193511963 0 2278.37988281
          357.591369629 0 2229.61206055
          357.591369629 0 2238.75610352
          357.591369629 0 2247.89990234
          357.591369629 0 2263.13989258
          357.591369629 0 2278.37988281
          446.989196777 0 2229.61206055
          446.989196777 0 2238.75610352
          446.989196777 0 2247.89990234
          446.989196777 0 2263.13989258
          446.989196777 0 2278.37988281
          536.387023926 0 2229.61206055
          536.387023926 0 2238.75610352
          536.387023926 0 2247.89990234
          536.387023926 0 2263.13989258
          536.387023926 0 2278.37988281
          625.784851074 0 2229.61206055
          625.784851074 0 2238.75610352
          625.784851074 0 2247.89990234
          625.784851074 0 2263.13989258
          625.784851074 0 2278.37988281
          715.182739258 0 2229.61206055
          715.182739258 0 2238.75610352
          715.182739258 0 2247.89990234
          715.182739258 0 2263.13989258
          715.182739258 0 2278.37988281
          804.580566406 0 2229.61206055
          804.580566406 0 2238.75610352
          804.580566406 0 2247.89990234
          804.580566406 0 2263.13989258
          804.580566406 0 2278.37988281
          0 89.3978424072 2229.61206055
          0 89.3978424072 2238.75610352
          0 89.3978424072 2247.89990234
          0 89.3978424072 2263.13989258
          0 89.3978424072 2278.37988281
          89.3978424072 89.3978424072 2229.61206055
          89.3978424072 89.3978424072 2238.75610352
          89.3978424072 89.3978424072 2247.89990234
          89.3978424072 89.3978424072 2263.13989258
          89.3978424072 89.3978424072 2278.37988281
          178.795684814 89.3978424072 2229.61206055
          178.795684814 89.3978424072 2238.75610352
          178.795684814 89.3978424072 2247.89990234
          178.795684814 89.3978424072 2263.13989258
          178.795684814 89.3978424072 2278.37988281
          268.193511963 89.3978424072 2229.61206055
          268.193511963 89.3978424072 2238.75610352
          268.193511963 89.3978424072 2247.89990234
          268.193511963 89.3978424072 2263.13989258
          268.193511963 89.3978424072 2278.37988281
          357.591369629 89.3978424072 2229.61206055
          357.591369629 89.3978424072 2238.75610352
          357.591369629 89.3978424072 2247.89990234
          357.591369629 89.3978424072 2263.13989258
          357.591369629 89.3978424072 2278.37988281
          446.989196777 89.3978424072 2229.61206055
          446.989196777 89.3978424072 2238.75610352
          446.989196777 89.3978424072 2247.89990234
          446.989196777 89.3978424072 2263.13989258
          446.989196777 89.3978424072 2278.37988281
          536.387023926 89.3978424072 2229.61206055
          536.387023926 89.3978424072 2238.75610352
          536.387023926 89.3978424072 2247.89990234
          536.387023926 89.3978424072 2263.13989258
          536.387023926 89.3978424072 2278.37988281
          625.784851074 89.3978424072 2229.61206055
          625.784851074 89.3978424072 2238.75610352
          625.784851074 89.3978424072 2247.89990234
          625.784851074 89.3978424072 2263.13989258
          625.784851074 89.3978424072 2278.37988281
          715.182739258 89.3978424072 2229.61206055
          715.182739258 89.3978424072 2238.75610352
          715.182739258 89.3978424072 2247.89990234
          715.182739258 89.3978424072 2263.13989258
          715.182739258 89.3978424072 2278.37988281
          804.580566406 89.3978424072 2229.61206055
          804.580566406 89.3978424072 2238.75610352
          804.580566406 89.3978424072 2247.89990234
          804.580566406 89.3978424072 2263.13989258
          804.580566406 89.3978424072 2278.37988281
          0 178.795684814 2229.61206055
          0 178.795684814 2238.75610352
          0 178.795684814 2247.89990234
          0 178.795684814 2263.13989258
          0 178.795684814 2278.37988281
          89.3978424072 178.795684814 2229.61206055
          89.3978424072 178.795684814 2238.75610352
          89.3978424072 178.795684814 2247.89990234
          89.3978424072 178.795684814 2263.13989258
          89.3978424072 178.795684814 2278.37988281
          178.795684814 178.795684814 2229.61206055
          178.795684814 178.795684814 2238.75610352
          178.795684814 178.795684814 2247.89990234
          178.795684814 178.795684814 2263.13989258
          178.795684814 178.795684814 2278.37988281
          268.193511963 178.795684814 2229.61206055
          268.193511963 178.795684814 2238.75610352
          268.193511963 178.795684814 2247.89990234
          268.193511963 178.795684814 2263.13989258
          268.193511963 178.795684814 2278.37988281
          357.591369629 178.795684814 2229.61206055
          357.591369629 178.795684814 2238.75610352
          357.591369629 178.795684814 2247.89990234
          357.591369629 178.795684814 2263.13989258
          357.591369629 178.795684814 2278.37988281
          446.989196777 178.795684814 2229.61206055
          446.989196777 178.795684814 2238.75610352
          446.989196777 178.795684814 2247.89990234
          446.989196777 178.795684814 2263.13989258
          446.989196777 178.795684814 2278.37988281
          536.387023926 178.795684814 2229.61206055
          536.387023926 178.795684814 2238.75610352
          536.387023926 178.795684814 2247.89990234
          536.387023926 178.795684814 2263.13989258
          536.387023926 178.795684814 2278.37988281
          625.784851074 178.795684814 2229.61206055
          625.784851074 178.795684814 2238.75610352
          625.784851074 178.795684814 2247.89990234
          625.784851074 178.795684814 2263.13989258
          625.784851074 178.795684814 2278.37988281
          715.182739258 178.795684814 2229.61206055
          715.182739258 178.795684814 2238.75610352
          715.182739258 178.795684814 2247.89990234
          715.182739258 178.795684814 2263.13989258
          715.182739258 178.795684814 2278.37988281
          804.580566406 178.795684814 2229.61206055
          804.580566406 178.795684814 2238.75610352
          804.580566406 178.795684814 2247.89990234
          804.580566406 178.795684814 2263.13989258
          804.580566406 178.795684814 2278.37988281
          0 268.193511963 2229.61206055
          0 268.193511963 2238.75610352
          0 268.193511963 2247.89990234
          0 268.193511963 2263.13989258
          0 268.193511963 2278.37988281
          89.3978424072 268.193511963 2229.61206055
          89.3978424072 268.193511963 2238.75610352
          89.3978424072 268.193511963 2247.89990234
          89.3978424072 268.193511963 2263.13989258
          89.3978424072 268.193511963 2278.37988281
          178.795684814 268.193511963 2229.61206055
          178.795684814 268.193511963 2238.75610352
          178.795684814 268.193511963 2247.89990234
          178.795684814 268.193511963 2263.13989258
          178.795684814 268.193511963 2278.37988281
          268.193511963 268.193511963 2229.61206055
          268.193511963 268.193511963 2238.75610352
          268.193511963 268.193511963 2247.89990234
          268.193511963 268.193511963 2263.13989258
          268.193511963 268.193511963 2278.37988281
          357.591369629 268.193511963 2229.61206055
          357.591369629 268.193511963 2238.75610352
          357.591369629 268.193511963 2247.89990234
          357.591369629 268.193511963 2263.13989258
          357.591369629 268.193511963 2278.37988281
          446.989196777 268.193511963 2229.61206055
          446.989196777 268.193511963 2238.75610352
          446.989196777 268.193511963 2247.89990234
          446.989196777 268.193511963 2263.13989258
          446.989196777 268.193511963 2278.37988281
          536.387023926 268.193511963 2229.61206055
          536.387023926 268.193511963 2238.75610352
          536.387023926 268.193511963 2247.89990234
          536.387023926 268.193511963 2263.13989258
          536.387023926 268.193511963 2278.37988281
          625.784851074 268.193511963 2229.61206055
          625.784851074 268.193511963 2238.75610352
          625.784851074 268.193511963 2247.89990234
          625.784851074 268.193511963 2263.13989258
          625.784851074 268.193511963 2278.37988281
          715.182739258 268.193511963 2229.61206055
          715.182739258 268.193511963 2238.75610352
          715.182739258 268.193511963 2247.89990234
          715.182739258 268.193511963 2263.13989258
          715.182739258 268.193511963 2278.37988281
          804.580566406 268.193511963 2229.61206055
          804.580566406 268.193511963 2238.75610352
          804.580566406 268.193511963 2247.89990234
          804.580566406 268.193511963 2263.13989258
          804.580566406 268.193511963 2278.37988281
          0 357.591369629 2229.61206055
          0 357.591369629 2238.75610352
          0 357.591369629 2247.89990234
          0 357.591369629 2263.13989258
          0 357.591369629 2278.37988281
[...]
      <CellData Scalars="saturation">
        <DataArray Name="pressure" NumberOfComponents="1" format="ascii" type="Float64">
          24221437.8398 24139999.2096 24098600.0652 24072385.0689 24053952.824 
          24040539.5138 24031081.7698 24025032.1622 24022079.7694 24139999.2096 
          24111808.3503 24085958.6 24065172.0307 24048999.1847 24036497.7352 
          24027434.7081 24021587.3954 24018738.6454 24098600.0652 24085958.6 
          24069800.2656 24054267.0424 24040421.2069 24028960.8767 24020366.1379 
          24014854.1485 24012231.9776 24072385.0689 24065172.0307 24054267.0424 
          24041873.059 24029601.8013 24018664.5817 24010211.4778 24005159.9451 
          24002944.3264 24053952.824 24048999.1847 24040421.2069 24029601.8013 
          24017784.7917 24006343.9631 23997375.3495 23993094.2699 23991661.991 
          24040539.5138 24036497.7352 24028960.8767 24018664.5817 24006343.9631 
          23993323.5496 23982698.4412 23980037.6127 23980019.5776 24031081.7698 
          24027434.7081 24020366.1379 24010211.4778 23997375.3495 23982698.4412 
          23969616.6298 23969382.165 23970844.6781 24025032.1622 24021587.3954 
          24014854.1485 24005159.9451 23993094.2699 23980037.6127 23969382.165 
          23966895.8218 23967072.372 24022079.7694 24018738.6454 24012231.9776 
          24002944.3264 23991661.991 23980019.5776 23970844.6781 23967072.372 
          23966207.1439 24227958.5376 24163595.4325 24125708.6906 24101349.7581 
          24083711.6602 24070555.0556 24061156.1779 24055119.2408 24052169.4959 
          24163595.4325 24138189.0925 24114300.4693 24094614.6505 24078899.0054 
          24066521.0562 24057492.5602 24051653.438 24048810.057 24125708.6906 
          24114300.4693 24099086.7229 24084072.5587 24070383.9286 24058962.3636 
          24050364.5371 24044866.3179 24042253.7123 24101349.7581 24094614.6505 
          24084072.5587 24071804.3085 24059552.3241 24048553.6054 24040042.1105 
          24035030.6712 24032860.5662 24083711.6602 24078899.0054 24070383.9286 
          24059552.3241 24047617.7805 24035931.0117 24026694.4957 24022635.19 
          24021377.8976 24070555.0556 24066521.0562 24058962.3636 24048553.6054 
          24035931.0117 24022210.8937 24010503.4842 24008845.926 24009396.1084 
          24061156.1779 24057492.5602 24050364.5371 24040042.1105 24026694.4957 
          24010503.4842 23993819.0623 23997097.7743 23999881.3196 24055119.2408 
          24051653.438 24044866.3179 24035030.6712 24022635.19 24008845.926 
          23997097.7743 23995617.0388 23996370.0276 24052169.4959 24048810.057 
          24042253.7123 24032860.5662 24021377.8976 24009396.1084 23999881.3196 
          23996370.0276 23995727.3785 24222548.031 24187786.9754 24159942.8989 
          24139122.0404 24122875.3593 24110328.4257 24101173.8445 24095218.1296 
          24092294.9978 24187786.9754 24170014.1733 24150493.1069 24133015.5593 
          24118250.915 24106317.1557 24097456.6337 24091685.885 24088874.0969 
          24159942.8989 24150493.1069 24137110.8086 24123071.7878 24109924.8922 
          24098680.5682 24090116.8492 24084693.3923 24082143.7235 24139122.0404 
          24133015.5593 24123071.7878 24111225.1937 24099051.4271 24087849.6181 
          24079112.9168 24074316.5461 24072352.2011 24122875.3593 24118250.915 
          24109924.8922 24099051.4271 24086661.6951 24073990.4123 24063634.1994 
          24060560.8833 24060066.8789 24110328.4257 24106317.1557 24098680.5682 
          24087849.6181 24073990.4123 24057296.1195 24040658.9327 24043661.1176 
          24046688.4407 24101173.8445 24097456.6337 24090116.8492 24079112.9168 
          24063634.1994 24040658.9327 24004686.4752 24026915.544 24035749.1357 
          24095218.1296 24091685.885 24084693.3923 24074316.5461 24060560.8833 
          24043661.1176 24026915.544 24030126.3372 24033398.6948 24092294.9978 
          24088874.0969 24082143.7235 24072352.2011 24060066.8789 24046688.4407 
          24035749.1357 24033398.6948 24033716.5082 24240224.0039 24224349.2857 
          24204894.7249 24187154.3688 24172122.832 24160096.8052 24151138.6355 
          24145257.7217 24142353.2292 24224349.2857 24212835.5505 24197209.3299 
          24181596.3569 24167660.4132 24156092.8259 24147371.3568 24141660.0988 
          24138875.249 24204894.7249 24197209.3299 24185347.6719 24172179.5315 
          24159474.4376 24148368.6581 24139826.9773 24134473.2593 24131977.9701 
          24187154.3688 24181596.3569 24172179.5315 24160674.4664 24148532.0233 
          24137136.6529 24128190.6506 24123578.899 24121809.8446 24172122.832 
          24167660.4132 24159474.4376 24148532.0233 24135716.4842 24122117.1111 
          24110649.5392 24108549.5218 24108769.5324 24160096.8052 24156092.8259 
          24148368.6581 24137136.6529 24122117.1111 24102495.5469 24080170.7419 
          24088606.6795 24094077.9417 24151138.6355 24147371.3568 24139826.9773 
          24128190.6506 24110649.5392 24080170.7419 24008008.8929 24066105.7418 
          24081733.6426 24145257.7217 24141660.0988 24134473.2593 24123578.899 
          24108549.5218 24088606.6795 24066105.7418 24074777.8849 24080537.2806 
          24142353.2292 24138875.249 24131977.9701 24121809.8446 24108769.5324 
          24094077.9417 24081733.6426 24080537.2806 24081756.5382 
        </DataArray>
        <DataArray Name="saturation" NumberOfComponents="3" format="ascii" type="Float64">
          0.164242210949 0 0.835757789051 
          0.164406585405 0 0.835593414595 
          0.164420005616 0 0.835579994384 
          0.16442765532 0 0.83557234468 
          0.164432110901 0 0.835567889099 
          0.164434745669 0.00420852093204 0.831356733399 
          0.164436355824 0.00404306641361 0.831520577762 
          0.164437354143 0.00408660089293 0.831476044964 
          0.164437813345 0.0050633008724 0.830498885783 
          0.164406585405 0 0.835593414595 
          0.164416992173 0 0.835583007827 
          0.164424607135 1.11022302463e-16 0.835575392865 
          0.164429874048 1.11022302463e-16 0.835570125952 
          0.164433222022 0.00171779575141 0.833848982227 
          0.164435436524 0.00497659204024 0.830587971435 
          0.164436936812 0.0050485906052 0.830514472583 
          0.164437880794 0.00508448470184 0.830477634504 
          0.164438363034 0.00417473238862 0.831386904577 
          0.164420005616 0 0.835579994384 
          0.164424607135 1.11022302463e-16 0.835575392865 
          0.164428964305 0 0.835571035695 
          0.164432309022 0.000134091548258 0.83543359943 
          0.164434750539 0.00500201236764 0.830563237093 
          0.164436663095 0.00414366968134 0.831419667224 
          0.164438054753 0.0051280679521 0.830433877295 
          0.164438965642 0.00426617425159 0.831294860107 
          0.164439409652 0.00428045822424 0.831280132124 
          0.16442765532 0 0.83557234468 
          0.164429874048 1.11022302463e-16 0.835570125952 
          0.164432309022 0.000134091548258 0.83543359943 
          0.164434460114 0.00503385208448 0.830531687801 
          0.164436501272 0.00447298123614 0.831090517491 
          0.164438304718 0.00517892683769 0.830382768444 
          0.164439645457 0.00439063322348 0.83116972132 
          0.164440534475 0.00442784756912 0.831131617956 
          0.164440846967 0.00529579851343 0.83026335452 
          0.164432110901 0 0.835567889099 
          0.164433222022 0.00171779575141 0.833848982227 
          0.164434750539 0.00500201236764 0.830563237093 
          0.164436501272 0.00447298123614 0.831090517491 
          0.164438449776 0.00432592563832 0.831235624586 
          0.164440310893 0.00450641800779 0.831053271099 
          0.164441672195 0.005405780735 0.83015254707 
          0.164442416287 0.00463663824589 0.830920945467 
          0.164442672397 0.00463693538562 0.830920392217 
          0.164434745669 0.00420852093204 0.831356733399 
          0.164435436524 0.00497659204024 0.830587971435 
          0.164436663095 0.00414366968134 0.831419667224 
          0.164438304718 0.00517892683769 0.830382768444 
          0.164440310893 0.00450641800779 0.831053271099 
          0.164442320706 0.00473878204691 0.830818897247 
          0.164443918593 0.0055576219495 0.829998459458 
          0.164444466712 0.00483719943639 0.830718333851 
          0.164444511895 0.00481223616328 0.830743251942 
          0.164436355824 0.00404306641361 0.831520577762 
          0.164436936812 0.0050485906052 0.830514472583 
          0.164438054753 0.0051280679521 0.830433877295 
          0.164439645457 0.00439063322348 0.83116972132 
          0.164441672195 0.005405780735 0.83015254707 
          0.164443918593 0.0055576219495 0.829998459458 
          0.164445824589 0.00508945993611 0.830464715475 
          0.164446104236 0.00495654966362 0.8305973461 
          0.164445969505 0.0049164886137 0.830637541881 
          0.164437354143 0.00408660089293 0.831476044964 
          0.164437880794 0.00508448470184 0.830477634504 
          0.164438965642 0.00426617425159 0.831294860107 
          0.164440534475 0.00442784756912 0.831131617956 
          0.164442416287 0.00463663824589 0.830920945467 
          0.164444466712 0.00483719943639 0.830718333851 
          0.164446104236 0.00495654966362 0.8305973461 
          0.164446583205 0.00493123675631 0.830622180039 
          0.164446564759 0.00558381385187 0.829969621389 
          0.164437813345 0.0050633008724 0.830498885783 
          0.164438363034 0.00417473238862 0.831386904577 
          0.164439409652 0.00428045822424 0.831280132124 
          0.164440846967 0.00529579851343 0.83026335452 
          0.164442672397 0.00463693538562 0.830920392217 
          0.164444511895 0.00481223616328 0.830743251942 
          0.164445969505 0.0049164886137 0.830637541881 
          0.164446564759 0.00558381385187 0.829969621389 
          0.164446758992 0.00493568488364 0.830617556124 
          0.182267080636 0 0.817732919364 
          0.182481318146 0 0.817518681854 
          0.182523906259 0 0.817476093741 
          0.182539719527 0.000610717828073 0.816849562645 
          0.18254885278 0.00364019520226 0.813810952018 
          0.182558787673 0.00388413068696 0.81355708164 
          0.182564467935 0.00401158613374 0.813423945932 
          0.182566457397 0.00425028373786 0.813183258865 
          0.182567662471 0.00424656849953 0.81318576903 
          0.182481318146 0 0.817518681854 
          0.182514389099 0 0.817485610901 
          0.182531729628 0 0.817468270372 
          0.182542640837 0.00404273168739 0.813414627475 
          0.18255137083 0.00473961669459 0.812709012476 
          0.182559580149 0.00426771103954 0.813172708812 
          0.182563941198 0.00492862465787 0.812507434144 
          0.182566190297 0.00414401688092 0.813289792822 
          0.182567147448 0.00417952082371 0.813253331728 
          0.182523906259 0 0.817476093741 
          0.182531729628 0 0.817468270372 
          0.182540766919 0.00262694551847 0.814832287562 
          0.182547430927 0.0046893224707 0.812763246602 
          0.182555122701 0.00482344443199 0.812621432867 
          0.182559817905 0.00405924360032 0.813380938495 
          0.182561764998 0.00417035651744 0.813267878485 
          0.182563677734 0.00505392893474 0.812382393331 
          0.182565454322 0.00427959208277 0.813154953596 
          0.182539719527 0.000610717828073 0.816849562645 
          0.182542640837 0.00404273168739 0.813414627475 
          0.182547430927 0.0046893224707 0.812763246602 
          0.18255301281 0.0038989408345 0.813548046355 
          0.182556110094 0.00405879083934 0.813385099067 
          0.182555685772 0.00420285753258 0.813241456696 
          0.18255490097 0.00508787245994 0.81235722657 
          0.182558117091 0.00438639576236 0.813055487146 
          0.182560340291 0.00441595248163 0.813023707227 
          0.18254885278 0.00364019520226 0.813810952018 
          0.18255137083 0.00473961669459 0.812709012476 
          0.182555122701 0.00482344443199 0.812621432867 
          0.182556110094 0.00405879083934 0.813385099067 
          0.182553844073 0.00501880520732 0.812427350719 
          0.182552609884 0.0043797531632 0.813067636952 
          0.18255079969 0.00517024875858 0.812278951551 
          0.18255453395 0.00522777732195 0.812217688728 
          0.182557383035 0.00457467686803 0.812867940097 
          0.182558787673 0.00388413068696 0.81355708164 
          0.182559580149 0.00426771103954 0.813172708812 
          0.182559817905 0.00405924360032 0.813380938495 
          0.182555685772 0.00420285753258 0.813241456696 
          0.182552609884 0.0043797531632 0.813067636952 
          0.182546519756 0.00454000652897 0.812913473715 
          0.18253583084 0.00463473474132 0.812829434419 
          0.182548229188 0.00469588377625 0.812755887036 
          0.182555047451 0.00533621485691 0.812108737692 
          0.182564467935 0.00401158613374 0.813423945932 
          0.182563941198 0.00492862465787 0.812507434144 
          0.182561764998 0.00417035651744 0.813267878485 
          0.18255490097 0.00508787245994 0.81235722657 
          0.18255079969 0.00517024875858 0.812278951551 
          0.18253583084 0.00463473474132 0.812829434419 
          0.182496035108 0.00506689945698 0.812437065435 
          0.182537291323 0.00526884795329 0.812193860723 
          0.182552856563 0.00482596243031 0.812621181007 
          0.182566457397 0.00425028373786 0.813183258865 
          0.182566190297 0.00414401688092 0.813289792822 
          0.182563677734 0.00505392893474 0.812382393331 
          0.182558117091 0.00438639576236 0.813055487146 
          0.18255453395 0.00522777732195 0.812217688728 
          0.182548229188 0.00469588377625 0.812755887036 
          0.182537291323 0.00526884795329 0.812193860723 
          0.182549713987 0.00484827200393 0.812602014009 
          0.182556568831 0.00543962844462 0.812003802724 
          0.182567662471 0.00424656849953 0.81318576903 
          0.182567147448 0.00417952082371 0.813253331728 
          0.182565454322 0.00427959208277 0.813154953596 
          0.182560340291 0.00441595248163 0.813023707227 
          0.182557383035 0.00457467686803 0.812867940097 
          0.182555047451 0.00533621485691 0.812108737692 
          0.182552856563 0.00482596243031 0.812621181007 
          0.182556568831 0.00543962844462 0.812003802724 
          0.182559706948 0.00490763236617 0.812532660686 
          0.213131478556 0 0.786868521444 
          0.213415126202 0 0.786584873798 
          0.213521584053 0.00253002590203 0.783948390045 
          0.213583901119 0.00411157686901 0.782304522012 
          0.213665646659 0.0045610882438 0.781773265097 
          0.21369812509 0.00369407736488 0.782607797546 
          0.213707369711 0.004772567899 0.78152006239 
          0.213714217024 0.003897188949 0.782388594027 
          0.213713494321 0.00486372519976 0.781422780479 
          0.213415126202 1.11022302463e-16 0.786584873798 
          0.213495636506 0.00125727483812 0.785247088656 
          0.213544223074 0.0029716429258 0.783484134 
          0.213622672785 0.00336625598394 0.783011071231 
          0.213675683631 0.00460499267146 0.781719323698 
          0.21369859592 0.00374934352612 0.782552060554 
          0.213704878498 0.00480690487193 0.78148821663 
          0.213709948798 0.0040965868541 0.782193464348 
          0.213713538422 0.00398316266636 0.782303298912 
          0.213521584053 0.00253002590203 0.783948390045 
          0.213544223074 0.0029716429258 0.783484134 
          0.213599149448 0.00442197512991 0.781978875422 
          0.213657826443 0.00456412573521 0.781778047821 
          0.213684235272 0.00468866374482 0.781627100983 
          0.213693014219 0.0041034122108 0.78220357357 
          0.213694971578 0.00487214006924 0.781432888352 
          0.213701549593 0.00404123249599 0.782257217911 
          0.21370574859 0.00407560592649 0.782218645483 
          0.213583901119 0.00411157686901 0.782304522012 
          0.213622672785 0.00336625598394 0.783011071231 
          0.213657826443 0.00456412573521 0.781778047821 
          0.213680633406 0.00368887720169 0.782630489392 
          0.213681877174 0.00478183845186 0.781536284375 
          0.213671620928 0.00487984788843 0.781448531184 
          0.213662017191 0.00411800883584 0.782219973973 
          0.213672574057 0.00501066997555 0.781316755968 
          0.213686615442 0.00421170915566 0.782101675403 
          0.213665646659 0.0045610882438 0.781773265097 
          0.213675683631 0.00460499267146 0.781719323698 
          0.213684235272 0.00468866374482 0.781627100983 
          0.213681877174 0.00478183845186 0.781536284375 
          0.213657449027 0.00488604011985 0.781456510853 
          0.213603431107 0.00418453525217 0.782212033641 
          0.213568505554 0.00430938914765 0.782122105298 
          0.213595572543 0.00509385510144 0.781310572355 
          0.213640498745 0.00512864191132 0.781230859344 
          0.21369812509 0.00369407736488 0.782607797546 
          0.21369859592 0.00374934352612 0.782552060554 
          0.213693014219 0.0041034122108 0.78220357357 
          0.213671620928 0.00487984788843 0.781448531184 
          0.213603431107 0.00418453525217 0.782212033641 
          0.213549609271 0.00504426021814 0.781406130511 
          0.213508293242 0.00457985087312 0.781911855885 
          0.213550609021 0.00455104957447 0.781898341404 
          0.213575016164 0.00520360055705 0.781221383279 
          0.213707369711 0.004772567899 0.78152006239 
          0.213704878498 0.00480690487193 0.78148821663 
          0.213694971578 0.00487214006924 0.781432888352 
          0.213662017191 0.00411800883584 0.782219973973 
          0.213568505554 0.00430938914765 0.782122105298 
          0.213508293242 0.00457985087312 0.781911855885 
          0.213334712693 0.00532289114826 0.781342396159 
          0.213507111728 0.00517624890479 0.781316639367 
          0.213560890195 0.00525469418403 0.781184415621 
          0.213714217024 0.003897188949 0.782388594027 
          0.213709948798 0.0040965868541 0.782193464348 
          0.213701549593 0.00404123249599 0.782257217911 
          0.213672574057 0.00501066997556 0.781316755968 
          0.213595572543 0.00509385510144 0.781310572355 
          0.213550609021 0.00455104957447 0.781898341404 
          0.213507111728 0.00517624890479 0.781316639367 
          0.213550203668 0.00471211954575 0.781737676787 
          0.213574045029 0.0047031508069 0.781722804165 
          0.213713494321 0.00486372519976 0.781422780479 
          0.213713538422 0.00398316266636 0.782303298912 
          0.21370574859 0.00407560592649 0.782218645483 
          0.213686615442 0.00421170915566 0.782101675403 
          0.213640498745 0.00512864191132 0.781230859344 
          0.213575016164 0.00520360055705 0.781221383279 
          0.213560890195 0.00525469418403 0.781184415621 
          0.213574045029 0.0047031508069 0.781722804165 
          0.213604460695 0.00471429828447 0.78168124102 
          0.300141689844 0 0.699858310156 
          0.301346325442 0 0.698653674558 
          0.302064496105 0.0018991123409 0.696036391554 
          0.302289050512 0.00375874055821 0.69395220893 
          0.302342493022 0.0032318261024 0.694425680876 
          0.302354723768 0.00370145050356 0.693943825728 
          0.302367006082 0.00344010237682 0.694192891541 
          0.302366920205 0.00434028081018 0.693292798985 
          0.302367991338 0.00364454170037 0.693987466962 
          0.301346325442 0 0.698653674558 
          0.301896109069 0.00259187940367 0.695512011528 
          0.302205022353 0.00296829526333 0.694826682384 
          0.302319145082 0.0031232545214 0.694557600396 
          0.302344152465 0.00418098508377 0.693474862451 
          0.302359362279 0.00342706153603 0.694213576185 