<?xml version="1.0"?>
<VTKFile type="UnstructuredGrid">
  <UnstructuredGrid>
    <Piece NumberOfCells="324" NumberOfPoints="500">
      <Points>
        <DataArray Name="Coordinates" NumberOfComponents="3" format="ascii" type="Float64">
          0 0 2229.61206055
          0 0 2238.75610352
          0 0 2247.89990234
          0 0 2263.13989258
          0 0 2278.37988281
          89.3978424072 0 2229.61206055
          89.3978424072 0 2238.75610352
          89.3978424072 0 2247.89990234
          89.3978424072 0 2263.13989258
          89.3978424072 0 2278.37988281
          178.795684814 0 2229.61206055
          178.795684814 0 2238.75610352
          178.795684814 0 2247.89990234
          178.795684814 0 2263.13989258
          178.795684814 0 2278.37988281
          268.193511963 0 2229.61206055
          268.193511963 0 2238.75610352
          268.193511963 0 2247.89990234
          268.193511963 0 2263.13989258
          268.193511963 0 2278.37988281
          357.591369629 0 2229.61206055
          357.591369629 0 2238.75610352
          357.591369629 0 2247.89990234
          357.591369629 0 2263.13989258
          357.591369629 0 2278.37988281
          446.989196777 0 2229.61206055
          446.989196777 0 2238.75610352
          446.989196777 0 2247.89990234
          446.989196777 0 2263.13989258
          446.989196777 0 2278.37988281
          536.387023926 0 2229.61206055
          536.387023926 0 2238.75610352
          536.387023926 0 2247.89990234
          536.387023926 0 2263.13989258
          536.387023926 0 2278.37988281
          625.784851074 0 2229.61206055
          625.784851074 0 2238.75610352
          625.784851074 0 2247.89990234
          625.784851074 0 2263.13989258
          625.784851074 0 2278.37988281
          715.182739258 0 2229.61206055
          715.182739258 0 2238.75610352
          715.182739258 0 2247.89990234
          715.182739258 0 2263.13989258
          715.182739258 0 2278.37988281
          804.580566406 0 2229.61206055
          804.580566406 0 2238.75610352
          804.580566406 0 2247.89990234
          804.580566406 0 2263.13989258
          804.580566406 0 2278.37988281
          0 89.3978424072 2229.61206055
          0 89.3978424072 2238.75610352
          0 89.3978424072 2247.89990234
          0 89.3978424072 2263.13989258
          0 89.3978424072 2278.37988281
          89.3978424072 89.3978424072 2229.61206055
          89.3978424072 89.3978424072 2238.75610352
          89.3978424072 89.3978424072 2247.89990234
          89.3978424072 89.3978424072 2263.13989258
          89.3978424072 89.3978424072 2278.37988281
          178.795684814 89.3978424072 2229.61206055
          178.795684814 89.3978424072 2238.75610352
          178.795684814 89.3978424072 2247.89990234
          178.795684814 89.3978424072 2263.13989258
          178.795684814 89.3978424072 2278.37988281
          268.193511963 89.3978424072 2229.61206055
          268.193511963 89.3978424072 2238.75610352
          268.193511963 89.3978424072 2247.89990234
          268.193511963 89.3978424072 2263.13989258
          268.193511963 89.3978424072 2278.37988281
          357.591369629 89.3978424072 2229.61206055
          357.591369629 89.3978424072 2238.75610352
          357.591369629 89.3978424072 2247.89990234
          357.591369629 89.3978424072 2263.13989258
          357.591369629 89.3978424072 2278.37988281
          446.989196777 89.3978424072 2229.61206055
          446.989196777 89.3978424072 2238.75610352
          446.989196777 89.3978424072 2247.89990234
          446.989196777 89.3978424072 2263.13989258
          446.989196777 89.3978424072 2278.37988281
          536.387023926 89.3978424072 2229.61206055
          536.387023926 89.3978424072 2238.75610352
          536.387023926 89.3978424072 2247.89990234
          536.387023926 89.3978424072 2263.13989258
          536.387023926 89.3978424072 2278.37988281
          625.784851074 89.3978424072 2229.61206055
          625.784851074 89.3978424072 2238.75610352
          625.784851074 89.3978424072 2247.89990234
          625.784851074 89.3978424072 2263.13989258
          625.784851074 89.3978424072 2278.37988281
          715.182739258 89.3978424072 2229.61206055
          715.182739258 89.3978424072 2238.75610352
          715.182739258 89.3978424072 2247.89990234
          715.182739258 89.3978424072 2263.13989258
          715.182739258 89.3978424072 2278.37988281
          804.580566406 89.3978424072 2229.61206055
          804.580566406 89.3978424072 2238.75610352
          804.580566406 89.3978424072 2247.89990234
          804.580566406 89.3978424072 2263.13989258
          804.580566406 89.3978424072 2278.37988281
          0 178.795684814 2229.61206055
          0 178.795684814 2238.75610352
          0 178.795684814 2247.89990234
          0 178.795684814 2263.13989258
          0 178.795684814 2278.37988281
          89.3978424072 178.795684814 2229.61206055
          89.3978424072 178.795684814 2238.75610352
          89.3978424072 178.795684814 2247.89990234
          89.3978424072 178.795684814 2263.13989258
          89.3978424072 178.795684814 2278.37988281
          178.795684814 178.795684814 2229.61206055
          178.795684814 178.795684814 2238.75610352
          178.795684814 178.795684814 2247.89990234
          178.795684814 178.795684814 2263.13989258
          178.795684814 178.795684814 2278.37988281
          268.193511963 178.795684814 2229.61206055
          268.193511963 178.795684814 2238.75610352
          268.193511963 178.795684814 2247.89990234
          268.193511963 178.795684814 2263.13989258
          268.193511963 178.795684814 2278.37988281
          357.591369629 178.795684814 2229.61206055
          357.591369629 178.795684814 2238.75610352
          357.591369629 178.795684814 2247.89990234
          357.591369629 178.795684814 2263.13989258
          357.591369629 178.795684814 2278.37988281
          446.989196777 178.795684814 2229.61206055
          446.989196777 178.795684814 2238.75610352
          446.989196777 178.795684814 2247.89990234
          446.989196777 178.795684814 2263.13989258
          446.989196777 178.795684814 2278.37988281
          536.387023926 178.795684814 2229.61206055
          536.387023926 178.795684814 2238.75610352
          536.387023926 178.795684814 2247.89990234
          536.387023926 178.795684814 2263.13989258
          536.387023926 178.795684814 2278.37988281
          625.784851074 178.795684814 2229.61206055
          625.784851074 178.795684814 2238.75610352
          625.784851074 178.795684814 2247.89990234
          625.784851074 178.795684814 2263.13989258
          625.784851074 178.795684814 2278.37988281
          715.182739258 178.795684814 2229.61206055
          715.182739258 178.795684814 2238.75610352
          715.182739258 178.795684814 2247.89990234
          715.182739258 178.795684814 2263.13989258
          715.182739258 178.795684814 2278.37988281
          804.580566406 178.795684814 2229.61206055
          804.580566406 178.795684814 2238.75610352
          804.580566406 178.795684814 2247.89990234
          804.580566406 178.795684814 2263.13989258
          804.580566406 178.795684814 2278.37988281
          0 268.193511963 2229.61206055
          0 268.193511963 2238.75610352
          0 268.193511963 2247.89990234
          0 268.193511963 2263.13989258
          0 268.193511963 2278.37988281
          89.3978424072 268.193511963 2229.61206055
          89.3978424072 268.193511963 2238.75610352
          89.3978424072 268.193511963 2247.89990234
          89.3978424072 268.193511963 2263.13989258
          89.3978424072 268.193511963 2278.37988281
          178.795684814 268.193511963 2229.61206055
          178.795684814 268.193511963 2238.75610352
          178.795684814 268.193511963 2247.89990234
          178.795684814 268.193511963 2263.13989258
          178.795684814 268.193511963 2278.37988281
          268.193511963 268.193511963 2229.61206055
          268.193511963 268.193511963 2238.75610352
          268.193511963 268.193511963 2247.89990234
          268.193511963 268.193511963 2263.13989258
          268.193511963 268.193511963 2278.37988281
          357.591369629 268.193511963 2229.61206055
          357.591369629 268.193511963 2238.75610352
          357.591369629 268.193511963 2247.89990234
          357.591369629 268.193511963 2263.13989258
          357.591369629 268.193511963 2278.37988281
          446.989196777 268.193511963 2229.61206055
          446.989196777 268.193511963 2238.75610352
          446.989196777 268.193511963 2247.89990234
          446.989196777 268.193511963 2263.13989258
          446.989196777 268.193511963 2278.37988281
          536.387023926 268.193511963 2229.61206055
          536.387023926 268.193511963 2238.75610352
          536.387023926 268.193511963 2247.89990234
          536.387023926 268.193511963 2263.13989258
          536.387023926 268.193511963 2278.37988281
          625.784851074 268.193511963 2229.61206055
          625.784851074 268.193511963 2238.75610352
          625.784851074 268.193511963 2247.89990234
          625.784851074 268.193511963 2263.13989258
          625.784851074 268.193511963 2278.37988281
          715.182739258 268.193511963 2229.61206055
          715.182739258 268.193511963 2238.75610352
          715.182739258 268.193511963 2247.89990234
          715.182739258 268.193511963 2263.13989258
          715.182739258 268.193511963 2278.37988281
          804.580566406 268.193511963 2229.61206055
          804.580566406 268.193511963 2238.75610352
          804.580566406 268.193511963 2247.89990234
          804.580566406 268.193511963 2263.13989258
          804.580566406 268.193511963 2278.37988281
          0 357.591369629 2229.61206055
          0 357.591369629 2238.75610352
          0 357.591369629 2247.89990234
          0 357.591369629 2263.13989258
          0 357.591369629 2278.37988281
[...]
      <CellData Scalars="saturation">
        <DataArray Name="pressure" NumberOfComponents="1" format="ascii" type="Float64">
          24527987.7451 24439184.3713 24393201.1961 24364495.714 24345439.1597 
          24331945.3451 24322630.2107 24316569.0459 24313646.6083 24439184.3713 
          24407776.1046 24379119.4456 24356881.1484 24340520.2432 24327961.1459 
          24318921.43 24313098.5909 24310255.6633 24393201.1961 24379119.4456 
          24361712.9405 24345800.9571 24331910.5335 24320528.6247 24311812.7425 
          24306290.7549 24303536.2552 24364495.714 24356881.1484 24345800.9571 
          24333449.1216 24321165.829 24309914.906 24301534.7134 24296291.75 
          24294110.0741 24345439.1597 24340520.2432 24331910.5335 24321165.829 
          24309024.2684 24297288.6823 24288559.7375 24284401.627 24283011.7832 
          24331945.3451 24327961.1459 24320528.6247 24309914.906 24297288.6823 
          24284364.5854 24273982.3065 24271461.0733 24271637.3906 24322630.2107 
          24318921.43 24311812.7425 24301534.7134 24288559.7375 24273982.3065 
          24261078.7812 24261054.2832 24262617.3704 24316569.0459 24313098.5909 
          24306290.7549 24296291.75 24284401.627 24271461.0733 24261054.2832 
          24258680.9682 24259029.9099 24313646.6083 24310255.6633 24303536.2552 
          24294110.0741 24283011.7832 24271637.3906 24262617.3704 24259029.9099 
          24258077.6907 24535244.335 24464670.3786 24422094.5167 24394520.7951 
          24375812.7524 24362503.5258 24353161.5612 24347126.7667 24344238.9488 
          24464670.3786 24435864.0984 24408714.5277 24387196.7394 24370947.1604 
          24358532.654 24349498.1998 24343667.4735 24340797.3736 24422094.5167 
          24408714.5277 24391909.9264 24376228.115 24362437.4386 24351009.3253 
          24342328.574 24336796.7481 24334012.753 24394520.7951 24387196.7394 
          24376228.115 24363938.1109 24351586.9078 24340328.4014 24331799.3284 
          24326694.1264 24324492.2304 24375812.7524 24370947.1604 24362437.4386 
          24351586.9078 24339346.7479 24327335.4424 24318404.2843 24314541.4711 
          24313283.2949 24362503.5258 24358532.654 24351009.3253 24340328.4014 
          24327335.4424 24313756.6583 24302244.2352 24300777.7133 24301631.4242 
          24353161.5612 24349498.1998 24342328.574 24331799.3284 24318404.2843 
          24302244.2352 24285806.8376 24289360.6033 24292205.8462 24347126.7667 
          24343667.4735 24336796.7481 24326694.1264 24314541.4711 24300777.7133 
          24289360.6033 24287906.7176 24288852.8522 24344238.9488 24340797.3736 
          24334012.753 24324492.2304 24313283.2949 24301631.4242 24292205.8462 
          24288852.8522 24288086.5897 24527622.6705 24487572.4799 24456141.832 
          24433157.4305 24415869.274 24403096.0055 24393917.4682 24387903.8304 
          24385130.382 24487572.4799 24467208.3431 24445579.8755 24426601.6203 
          24411121.2502 24399120.0464 24390183.6167 24384369.33 24381548.4231 
          24456141.832 24445579.8755 24430746.8618 24416234.6398 24402792.1696 
          24391462.7228 24382824.8295 24377319.0437 24374683.069 24433157.4305 
          24426601.6203 24416234.6398 24404121.7619 24391862.8186 24380376.0756 
          24371356.6313 24366819.0893 24364614.6888 24415869.274 24411121.2502 
          24402792.1696 24391862.8186 24379186.8965 24365967.63 24355875.4793 
          24353317.0738 24352942.3132 24403096.0055 24399120.0464 24391462.7228 
          24380376.0756 24365967.63 24349639.6393 24332954.0012 24336264.0457 
          24339814.4528 24393917.4682 24390183.6167 24382824.8295 24371356.6313 
          24355875.4793 24332954.0012 24297095.7598 24319944.52 24328939.6506 
          24387903.8304 24384369.33 24377319.0437 24366819.0893 24353317.0738 
          24336264.0457 24319944.52 24323026.292 24326381.6904 24385130.382 
          24381548.4231 24374683.069 24364614.6888 24352942.3132 24339814.4528 
          24328939.6506 24326381.6904 24326640.2598 24542079.4966 24522797.8189 
          24501708.4772 24482130.9817 24466170.6539 24453782.3873 24444702.1648 
          24438790.8999 24435969.0847 24522797.8189 24510049.1199 24493136.6317 
          24476213.9397 24461474.1915 24449831.7003 24440888.1658 24435207.6719 
          24432421.6499 24501708.4772 24493136.6317 24480074.0978 24466442.273 
          24453227.4895 24442045.0611 24433365.125 24427929.5633 24425456.0539 
          24482130.9817 24476213.9397 24466442.273 24454423.2584 24442298.176 
          24430498.1141 24421362.0495 24416870.5756 24415117.0821 24466170.6539 
          24461474.1915 24453227.4895 24442298.176 24429030.0637 24414950.1479 
          24403871.5602 24402085.2586 24402468.5503 24453782.3873 24449831.7003 
          24442045.0611 24430498.1141 24414950.1479 24395595.5243 24373315.1767 
          24382102.8846 24387928.9501 24444702.1648 24440888.1658 24433365.125 
          24421362.0495 24403871.5602 24373315.1767 24300898.3145 24359757.4767 
          24375529.6199 24438790.8999 24435207.6719 24427929.5633 24416870.5756 
          24402085.2586 24382102.8846 24359757.4767 24368472.3558 24374277.5875 
          24435969.0847 24432421.6499 24425456.0539 24415117.0821 24402468.5503 
          24387928.9501 24375529.6199 24374277.5875 24375479.5838 
        </DataArray>
        <DataArray Name="saturation" NumberOfComponents="3" format="ascii" type="Float64">
          0.164341807511 1.11022302463e-16 0.835658192489 
          0.164375486438 2.22044604925e-16 0.835624513562 
          0.164383684451 0 0.835616315549 
          0.164388737771 0 0.835611262229 
          0.164391929914 1.11022302463e-16 0.835608070086 
          0.164394207304 0.000509256953692 0.835096535742 
          0.164395710178 0 0.835604289822 
          0.164396737596 0 0.835603262404 
          0.164397226646 0.000730686829801 0.834872086524 
          0.164375486438 2.22044604925e-16 0.835624513562 
          0.164381167217 0 0.835618832783 
          0.164386242856 0 0.835613757144 
          0.164390120265 0.000285483714896 0.83532439602 
          0.164392731117 1.11022302463e-16 0.835607268883 
          0.164394867561 0.000557576639739 0.835047555799 
          0.164396360438 0.000672042842603 0.834931596719 
          0.164397317918 0.000734557138638 0.834868124943 
          0.164397775637 0 0.835602224363 
          0.164383684451 0 0.835616315549 
          0.164386242856 0 0.835613757144 
          0.164389316427 0.00027170166373 0.835338981909 
          0.164391892675 0.000433813579382 0.835174293745 
          0.1643942149 0.000532202401081 0.835073582699 
          0.164396040489 0 0.835603959511 
          0.1643975412 0.000737599147183 0.834864859652 
          0.164398429685 0 0.835601570315 
          0.164398912287 0 0.835601087713 
          0.164388737771 0 0.835611262229 
          0.164390120265 0.000285483714896 0.83532439602 
          0.164391892675 0.000433813579382 0.835174293745 
          0.164393930657 0.000539700486639 0.835066368856 
          0.164395925703 1.11022302463e-16 0.835604074297 
          0.164397881387 0.000736953663178 0.83486516495 
          0.16439920592 0 0.83560079408 
          0.164400172011 4.24688697441e-05 0.83555735912 
          0.16440048594 0.000929347570213 0.834670166489 
          0.164391929914 1.11022302463e-16 0.835608070086 
          0.164392731117 1.11022302463e-16 0.835607268883 
          0.1643942149 0.000532202401081 0.835073582699 
          0.164395925703 1.11022302463e-16 0.835604074297 
          0.164397998834 0 0.835602001166 
          0.164399999316 3.61812301588e-05 0.835563819454 
          0.164401411126 0.000956737634876 0.834641851239 
          0.164402111029 0.000226379901271 0.835371509069 
          0.164402342992 0.000244898608123 0.8353527584 
          0.164394207304 0.000509256953692 0.835096535742 
          0.164394867561 0.000557576639739 0.835047555799 
          0.164396040489 0 0.835603959511 
          0.164397881387 0.000736953663178 0.83486516495 
          0.164399999316 3.61812301588e-05 0.835563819454 
          0.164402114806 0.000238247395312 0.835359637799 
          0.164403801922 0.00106382185839 0.83453237622 
          0.164404254686 0.000419513124948 0.835176232189 
          0.164404226706 0.000414226261621 0.835181547032 
          0.164395710178 0 0.835604289822 
          0.164396360438 0.000672042842603 0.834931596719 
          0.1643975412 0.000737599147183 0.834864859652 
          0.16439920592 0 0.83560079408 
          0.164401411126 0.000956737634876 0.834641851239 
          0.164403801922 0.00106382185839 0.83453237622 
          0.164405970258 0.000584076025969 0.835009953716 
          0.164405977945 0.00056976745969 0.835024254596 
          0.164405721651 0.000545026793611 0.835049251556 
          0.164396737596 0 0.835603262404 
          0.164397317918 0.000734557138638 0.834868124943 
          0.164398429685 0 0.835601570315 
          0.164400172011 4.24688697441e-05 0.83555735912 
          0.164402111029 0.000226379901271 0.835371509069 
          0.164404254686 0.000419513124948 0.835176232189 
          0.164405977945 0.00056976745969 0.835024254596 
          0.164406373638 0.000598770320815 0.834994856041 
          0.164406285598 0.00125076374317 0.834342950658 
          0.164397226646 0.000730686829801 0.834872086524 
          0.164397775637 0 0.835602224363 
          0.164398912287 0 0.835601087713 
          0.16440048594 0.000929347570213 0.834670166489 
          0.164402342992 0.000244898608123 0.8353527584 
          0.164404226706 0.000414226261621 0.835181547032 
          0.164405721651 0.000545026793611 0.835049251556 
          0.164406285598 0.00125076374317 0.834342950658 
          0.164406475869 0.000607870540017 0.834985653591 
          0.182423345292 0 0.817576654708 
          0.182461182787 0 0.817538817213 
          0.182473691011 1.11022302463e-16 0.817526308989 
          0.182480894523 0 0.817519105477 
          0.182485621737 0 0.817514378263 
          0.182489055264 0 0.817510944736 
          0.182491086672 0 0.817508913328 
          0.182492249652 1.11022302463e-16 0.817507750348 
          0.182492969045 1.11022302463e-16 0.817507030955 
          0.182461182787 0 0.817538817213 
          0.182470268897 0 0.817529731103 
          0.182477505215 0 0.817522494785 
          0.182482584845 0.000297937753342 0.817219477401 
          0.182486710868 0.000463842963478 0.817049446169 
          0.182489759139 2.22044604925e-16 0.817510240861 
          0.182491614466 0.000673114589537 0.816835270944 
          0.182492720688 0 0.817507279312 
          0.182493356113 0 0.817506643887 
          0.182473691011 1.11022302463e-16 0.817526308989 
          0.182477505215 0 0.817522494785 
          0.182481517278 0 0.817518482722 
          0.182485422169 0.000406716172099 0.817107861659 
          0.182488597148 0.000547011946629 0.816964390906 
          0.18249088353 0 0.81750911647 
          0.182492582854 0 0.817507417146 
          0.182493640003 0.00080585128477 0.816700508712 
          0.182494514676 3.38477919888e-05 0.817471637532 
          0.182480894523 0 0.817519105477 
          0.182482584845 0.000297937753342 0.817219477401 
          0.182485422169 0.000406716172099 0.817107861659 
          0.182487974602 0 0.817512025398 
          0.182490443404 0 0.817509556596 
          0.182492138126 0 0.817507861874 
          0.182492860836 0.000838915545112 0.816668223619 
          0.182494857281 0.000141684523879 0.817363458196 
          0.182495262273 0.000172987229289 0.817331750497 
          0.182485621737 0 0.817514378263 
          0.182486710868 0.000463842963478 0.817049446169 
          0.182488597148 0.000547011946629 0.816964390906 
          0.182490443404 0 0.817509556596 
          0.182491923975 0.000753236168375 0.816754839856 
          0.182493439451 0.000131521333876 0.817375039215 
          0.182494491042 0.000944736610721 0.816560772347 
          0.182495678593 0.000998717145995 0.816505604261 
          0.182496418466 0.000335856590506 0.817167724943 
          0.182489055264 0 0.817510944736 
          0.182489759139 2.22044604925e-16 0.817510240861 
          0.18249088353 0 0.81750911647 
          0.182492138126 0 0.817507861874 
          0.182493439451 0.000131521333876 0.817375039215 
          0.182494777078 0.000325540503244 0.817179682419 
          0.18249528794 0.000484318939691 0.817020393121 
          0.182497058426 0.000510528054369 0.81699241352 
          0.182497824355 0.00111800469896 0.816384170946 
          0.182491086672 0 0.817508913328 
          0.182491614466 0.000673114589537 0.816835270944 
          0.182492582854 0 0.817507417146 
          0.182492860836 0.000838915545112 0.816668223619 
          0.182494491042 0.000944736610721 0.816560772347 
          0.18249528794 0.000484318939691 0.817020393121 
          0.182493264504 0.00108041123016 0.816426324266 
          0.182497540597 0.00115944757167 0.816343011831 
          0.182499088114 0.000635800501803 0.816865111384 
          0.182492249652 1.11022302463e-16 0.817507750348 
          0.182492720688 0 0.817507279312 
          0.182493640003 0.00080585128477 0.816700508712 
          0.182494857281 0.000141684523879 0.817363458196 
          0.182495678593 0.000998717145995 0.816505604261 
          0.182497058426 0.000510528054369 0.81699241352 
          0.182497540597 0.00115944757167 0.816343011831 
          0.182499243775 0.000693608582872 0.816807147642 
          0.182499949087 0.00124406949726 0.816255981416 
          0.182492969045 1.11022302463e-16 0.817507030955 
          0.182493356113 0 0.817506643887 
          0.182494514676 3.38477919888e-05 0.817471637532 
          0.182495262273 0.000172987229289 0.817331750497 
          0.182496418466 0.000335856590506 0.817167724943 
          0.182497824355 0.00111800469896 0.816384170946 
          0.182499088114 0.000635800501803 0.816865111384 
          0.182499949087 0.00124406949726 0.816255981416 
          0.182500589305 0.000697522926289 0.816801887769 
          0.213415793568 0 0.786584206432 
          0.213460200263 1.11022302463e-16 0.786539799737 
          0.213481192055 0.000159180459298 0.786359627486 
          0.213498506701 1.11022302463e-16 0.786501493299 
          0.213511912551 0.000457979627285 0.786030107822 
          0.213516973884 0 0.786483026116 
          0.213519435024 0.00067524101246 0.785805323963 
          0.213521520232 0 0.786478479768 
          0.213521483445 0.000769824365674 0.785708692189 
          0.213460200263 1.11022302463e-16 0.786539799737 
          0.213475149358 1.11022302463e-16 0.786524850642 
          0.213485999085 0 0.786514000915 
          0.213504813686 0 0.786495186314 
          0.213513241291 0.000502906791069 0.785983851918 
          0.213517906578 0 0.786482093422 
          0.213519673431 0.00071055738447 0.785769769185 
          0.213521874492 1.11022302463e-16 0.786478125508 
          0.213522701284 0 0.786477298716 
          0.213481192055 0.000159180459298 0.786359627486 
          0.213485999085 0 0.786514000915 
          0.21350207753 0.000319988754567 0.786177933716 
          0.213511006743 0.000458620418592 0.786030372839 
          0.213515293922 0.000584551949299 0.785900154129 
          0.213518566118 1.11022302463e-16 0.786481433882 
          0.213519930063 0.000777539882794 0.785702530054 
          0.213521706891 0 0.786478293109 
          0.213523347195 0 0.786476652805 
          0.213498506701 1.11022302463e-16 0.786501493299 
          0.213504813686 0 0.786495186314 
          0.213511006743 0.000458620418592 0.786030372839 
          0.213514226441 0 0.786485773559 
          0.213517401313 0.000678654607533 0.785803944079 
          0.213517608484 0.000786832321256 0.785695559195 
          0.213519334395 3.28727443735e-05 0.786447792861 
          0.213519839017 0.000927736312308 0.78555242467 
          0.213524104979 0.00012747163575 0.786348423385 
          0.213511912551 0.000457979627285 0.786030107822 
          0.213513241291 0.000502906791069 0.785983851918 
          0.213515293922 0.000584551949299 0.785900154129 
          0.213517401313 0.000678654607533 0.785803944079 
          0.213515807378 0.000792454696809 0.785691737925 
          0.213512690902 0.000108037983209 0.786379271115 
          0.213506848089 0.000247002572555 0.786246149339 
          0.213512946291 0.00102449246049 0.785462561248 
          0.21351885178 0.00104952062043 0.7854316276 
          0.213516973884 0 0.786483026116 
          0.213517906578 0 0.786482093422 
          0.213518566118 1.11022302463e-16 0.786481433882 
          0.213517608484 0.000786832321256 0.785695559195 
          0.213512690902 0.000108037983209 0.786379271115 
          0.213503370816 0.000993679104218 0.78550295008 
          0.213502348312 0.00056231879621 0.785935332891 
          0.213506560013 0.000518094848363 0.785975345138 
          0.213510715892 0.00114090711164 0.785348376996 
          0.213519435024 0.00067524101246 0.785805323963 
          0.213519673431 0.00071055738447 0.785769769185 
          0.213519930063 0.000777539882794 0.785702530054 
          0.213519334395 3.28727443735e-05 0.786447792861 
          0.213506848089 0.000247002572555 0.786246149339 
          0.213502348312 0.00056231879621 0.785935332891 
          0.213484975596 0.00111052352639 0.785404500877 
          0.213504086107 0.00118764710393 0.785308266789 
          0.213508439237 0.00121630782836 0.785275252935 
          0.213521520232 0 0.786478479768 
          0.213521874492 1.11022302463e-16 0.786478125508 
          0.213521706891 0 0.786478293109 
          0.213519839017 0.000927736312308 0.78555242467 
          0.213512946291 0.00102449246049 0.785462561248 
          0.213506560013 0.000518094848363 0.785975345138 
          0.213504086107 0.00118764710393 0.785308266789 
          0.21350890208 0.000700419231468 0.785790678688 
          0.213512128866 0.000657369596438 0.785830501538 
          0.213521483445 0.000769824365674 0.785708692189 
          0.213522701284 0 0.786477298716 
          0.213523347195 0 0.786476652805 
          0.213524104979 0.00012747163575 0.786348423385 
          0.21351885178 0.00104952062043 0.7854316276 
          0.213510715892 0.00114090711164 0.785348376996 
          0.213508439237 0.00121630782836 0.785275252935 
          0.213512128866 0.000657369596438 0.785830501538 
          0.213519342488 0.000655587495389 0.785825070016 
          0.302128158876 0 0.697871841124 
          0.302339876574 6.18194473623e-05 0.697598303979 
          0.30240703472 0 0.69759296528 
          0.302445745391 1.11022302463e-16 0.697554254609 
          0.302451761594 0 0.697548238406 
          0.302456973676 1.11022302463e-16 0.697543026324 
          0.302458940961 0 0.697541059039 
          0.30246130829 0.000688236493204 0.696850455217 
          0.302460340508 2.22044604925e-16 0.697539659492 
          0.302339876574 6.18194473623e-05 0.697598303979 
          0.302395782807 0.000127927711663 0.697476289481 
          0.302431390085 0 0.697568609915 
          0.302448734755 0 0.697551265245 
          0.302458969386 0.00045660401123 0.697084426603 
          0.302453379675 0 0.697546620325 
          0.302462426634 0.000658470590972 0.696879102775 
          0.302459882311 0.000722950461881 0.696817167227 
          0.302461975085 0.000746851043764 0.696791173871 
          0.30240703472 0 0.69759296528 
          0.302431390085 0 0.697568609915 
          0.302454564696 0.000282798280127 0.697262637024 
          0.302445875214 1.11022302463e-16 0.697554124786 
          0.302458836706 0.000542620157755 0.696998543136 
          0.302455411905 0 0.697544588095 
          0.302458531403 0 0.697541468597 
          0.302463472983 0.000777821011995 0.696758706005 